 Entering Gaussian System, Link 0=/apps/rhel5/g09-C.01/g09/g09
 Initial command:
 /apps/rhel5/g09-C.01/g09/l1.exe /scratch/scratch95/t/tmanz/gaussian/Gau-29412.inp -scrdir=/scratch/scratch95/t/tmanz/gaussian/
 Entering Link 1 = /apps/rhel5/g09-C.01/g09/l1.exe PID=     29413.
  
 Copyright (c) 1988,1990,1992,1993,1995,1998,2003,2009,2011,
            Gaussian, Inc.  All Rights Reserved.
  
 This is part of the Gaussian(R) 09 program.  It is based on
 the Gaussian(R) 03 system (copyright 2003, Gaussian, Inc.),
 the Gaussian(R) 98 system (copyright 1998, Gaussian, Inc.),
 the Gaussian(R) 94 system (copyright 1995, Gaussian, Inc.),
 the Gaussian 92(TM) system (copyright 1992, Gaussian, Inc.),
 the Gaussian 90(TM) system (copyright 1990, Gaussian, Inc.),
 the Gaussian 88(TM) system (copyright 1988, Gaussian, Inc.),
 the Gaussian 86(TM) system (copyright 1986, Carnegie Mellon
 University), and the Gaussian 82(TM) system (copyright 1983,
 Carnegie Mellon University). Gaussian is a federally registered
 trademark of Gaussian, Inc.
  
 This software contains proprietary and confidential information,
 including trade secrets, belonging to Gaussian, Inc.
  
 This software is provided under written license and may be
 used, copied, transmitted, or stored only in accord with that
 written license.
  
 The following legend is applicable only to US Government
 contracts under FAR:
  
                    RESTRICTED RIGHTS LEGEND
  
 Use, reproduction and disclosure by the US Government is
 subject to restrictions as set forth in subparagraphs (a)
 and (c) of the Commercial Computer Software - Restricted
 Rights clause in FAR 52.227-19.
  
 Gaussian, Inc.
 340 Quinnipiac St., Bldg. 40, Wallingford CT 06492
  
  
 ---------------------------------------------------------------
 Warning -- This program may not be used in any manner that
 competes with the business of Gaussian, Inc. or will provide
 assistance to any competitor of Gaussian, Inc.  The licensee
 of this program is prohibited from giving any competitor of
 Gaussian, Inc. access to this program.  By using this program,
 the user acknowledges that Gaussian, Inc. is engaged in the
 business of creating and licensing software in the field of
 computational chemistry and represents and warrants to the
 licensee that it is not a competitor of Gaussian, Inc. and that
 it will not use this program in any manner prohibited above.
 ---------------------------------------------------------------
  

 Cite this work as:
 Gaussian 09, Revision C.01,
 M. J. Frisch, G. W. Trucks, H. B. Schlegel, G. E. Scuseria, 
 M. A. Robb, J. R. Cheeseman, G. Scalmani, V. Barone, B. Mennucci, 
 G. A. Petersson, H. Nakatsuji, M. Caricato, X. Li, H. P. Hratchian, 
 A. F. Izmaylov, J. Bloino, G. Zheng, J. L. Sonnenberg, M. Hada, 
 M. Ehara, K. Toyota, R. Fukuda, J. Hasegawa, M. Ishida, T. Nakajima, 
 Y. Honda, O. Kitao, H. Nakai, T. Vreven, J. A. Montgomery, Jr., 
 J. E. Peralta, F. Ogliaro, M. Bearpark, J. J. Heyd, E. Brothers, 
 K. N. Kudin, V. N. Staroverov, T. Keith, R. Kobayashi, J. Normand, 
 K. Raghavachari, A. Rendell, J. C. Burant, S. S. Iyengar, J. Tomasi, 
 M. Cossi, N. Rega, J. M. Millam, M. Klene, J. E. Knox, J. B. Cross, 
 V. Bakken, C. Adamo, J. Jaramillo, R. Gomperts, R. E. Stratmann, 
 O. Yazyev, A. J. Austin, R. Cammi, C. Pomelli, J. W. Ochterski, 
 R. L. Martin, K. Morokuma, V. G. Zakrzewski, G. A. Voth, 
 P. Salvador, J. J. Dannenberg, S. Dapprich, A. D. Daniels, 
 O. Farkas, J. B. Foresman, J. V. Ortiz, J. Cioslowski, 
 and D. J. Fox, Gaussian, Inc., Wallingford CT, 2010.
 
 ******************************************
 Gaussian 09:  EM64L-G09RevC.01 23-Sep-2011
                 6-Oct-2012 
 ******************************************
 %chk=ozone_singlet_PW91.chk
 %mem=2000MB
 Default route: MaxDisk=200GB
 ----------------------------------------------------------------------
 #P opt=gdiis PW91PW91/6-311++G** geom=connectivity guess=mix # scf=(fe
 rmi,conver=7,maxcycle=400) output=wfx
 ----------------------------------------------------------------------

 Warning!  Use of Opt=GDIIS is deprecated since it is seldom a good choice.

 1/14=-1,18=20,19=11,26=3,38=1,57=2/1,3;
 2/9=110,12=2,17=6,18=5,40=1/2;
 3/5=4,6=6,7=1111,11=2,16=1,25=1,30=1,71=1,74=608/1,2,3;
 4/13=-1/1;
 5/5=2,6=7,7=400,22=13,38=5/2;
 6/7=2,8=2,9=2,10=2,28=1/1;
 7//1,2,3,16;
 1/14=-1,18=20,19=11/3(2);
 2/9=110/2;
 99/6=200/99;
 2/9=110/2;
 3/5=4,6=6,7=1111,11=2,16=1,25=1,30=1,71=1,74=608/1,2,3;
 4/5=5,16=3/1;
 5/5=2,6=7,7=400,22=13,38=5/2;
 7//1,2,3,16;
 1/14=-1,18=20,19=11/3(-5);
 2/9=110/2;
 6/7=2,8=2,9=2,10=2,19=2,28=1/1;
 99/6=200,9=1/99;
 Leave Link    1 at Sat Oct  6 02:09:33 2012, MaxMem=  262144000 cpu:       0.1
 (Enter /apps/rhel5/g09-C.01/g09/l101.exe)
 -------------------
 Title Card Required
 -------------------
 Charge =  0 Multiplicity = 1
 Symbolic Z-Matrix:
 O
 O                    1    B1
 O                    1    B2       2    A1
       Variables:
  B1                    1.22                     
  B2                    1.22                     
  A1                  117.                       
 
 NAtoms=      3 NQM=        0 NQMF=       0 NMMI=      3 NMMIF=      0
                NMic=       0 NMicF=      0.
                    Isotopes and Nuclear Properties:
 (Nuclear quadrupole moments (NQMom) in fm**2, nuclear magnetic moments (NMagM)
  in nuclear magnetons)

  Atom         1           2           3
 IAtWgt=          16          16          16
 AtmWgt=  15.9949146  15.9949146  15.9949146
 NucSpn=           0           0           0
 AtZEff=   0.0000000   0.0000000   0.0000000
 NQMom=    0.0000000   0.0000000   0.0000000
 NMagM=    0.0000000   0.0000000   0.0000000
 Leave Link  101 at Sat Oct  6 02:09:33 2012, MaxMem=  262144000 cpu:       0.2
 (Enter /apps/rhel5/g09-C.01/g09/l103.exe)

 GradGradGradGradGradGradGradGradGradGradGradGradGradGradGradGradGradGrad
 Berny optimization.
 Initialization pass.
                           ----------------------------
                           !    Initial Parameters    !
                           ! (Angstroms and Degrees)  !
 --------------------------                            --------------------------
 ! Name  Definition              Value          Derivative Info.                !
 --------------------------------------------------------------------------------
 ! R1    R(1,2)                  1.22           estimate D2E/DX2                !
 ! R2    R(1,3)                  1.22           estimate D2E/DX2                !
 ! A1    A(2,1,3)              117.0            estimate D2E/DX2                !
 --------------------------------------------------------------------------------
 Trust Radius=3.00D-01 FncErr=1.00D-07 GrdErr=1.00D-06
 Number of steps in this run=     20 maximum allowed number of steps=    100.
 GradGradGradGradGradGradGradGradGradGradGradGradGradGradGradGradGradGrad

 Leave Link  103 at Sat Oct  6 02:09:33 2012, MaxMem=  262144000 cpu:       0.0
 (Enter /apps/rhel5/g09-C.01/g09/l202.exe)
                          Input orientation:                          
 ---------------------------------------------------------------------
 Center     Atomic      Atomic             Coordinates (Angstroms)
 Number     Number       Type             X           Y           Z
 ---------------------------------------------------------------------
      1          8           0        0.000000    0.000000    0.000000
      2          8           0        0.000000    0.000000    1.220000
      3          8           0        1.087028    0.000000   -0.553868
 ---------------------------------------------------------------------
                    Distance matrix (angstroms):
                    1          2          3
     1  O    0.000000
     2  O    1.220000   0.000000
     3  O    1.220000   2.080442   0.000000
 Stoichiometry    O3
 Framework group  C2V[C2(O),SGV(O2)]
 Deg. of freedom     2
 Full point group                 C2V     NOp   4
 Largest Abelian subgroup         C2V     NOp   4
 Largest concise Abelian subgroup C2      NOp   2
                         Standard orientation:                         
 ---------------------------------------------------------------------
 Center     Atomic      Atomic             Coordinates (Angstroms)
 Number     Number       Type             X           Y           Z
 ---------------------------------------------------------------------
      1          8           0        0.000000    0.000000    0.424965
      2          8           0        0.000000    1.040221   -0.212483
      3          8           0        0.000000   -1.040221   -0.212483
 ---------------------------------------------------------------------
 Rotational constants (GHZ):    116.6370867     14.6000398     12.9757954
 Leave Link  202 at Sat Oct  6 02:09:33 2012, MaxMem=  262144000 cpu:       0.0
 (Enter /apps/rhel5/g09-C.01/g09/l301.exe)
 Standard basis: 6-311++G(d,p) (5D, 7F)
 Ernie: Thresh=  0.10000D-02 Tol=  0.10000D-05 Strict=F.
 There are    27 symmetry adapted basis functions of A1  symmetry.
 There are     7 symmetry adapted basis functions of A2  symmetry.
 There are    11 symmetry adapted basis functions of B1  symmetry.
 There are    21 symmetry adapted basis functions of B2  symmetry.
 Integral buffers will be    131072 words long.
 Raffenetti 2 integral format.
 Two-electron integral symmetry is turned on.
    66 basis functions,   108 primitive gaussians,    69 cartesian basis functions
    12 alpha electrons       12 beta electrons
       nuclear repulsion energy        71.7991480921 Hartrees.
 IExCor=  608 DFT=T Ex=PW91 Corr=PW91 ExCW=0 ScaHFX=  0.000000
 ScaDFX=  1.000000  1.000000  1.000000  1.000000 ScalE2=  1.000000  1.000000
 IRadAn=      0 IRanWt=     -1 IRanGd=            0 ICorTp=0
 NAtoms=    3 NActive=    3 NUniq=    2 SFac= 2.25D+00 NAtFMM=   60 NAOKFM=F Big=F
 Leave Link  301 at Sat Oct  6 02:09:33 2012, MaxMem=  262144000 cpu:       0.1
 (Enter /apps/rhel5/g09-C.01/g09/l302.exe)
 NPDir=0 NMtPBC=     1 NCelOv=     1 NCel=       1 NClECP=     1 NCelD=      1
         NCelK=      1 NCelE2=     1 NClLst=     1 CellRange=     0.0.
 One-electron integrals computed using PRISM.
 One-electron integral symmetry used in STVInt
 NBasis=    66 RedAO= T  NBF=    27     7    11    21
 NBsUse=    66 1.00D-06 NBFU=    27     7    11    21
 Precomputing XC quadrature grid using
 IXCGrd= 2 IRadAn=           0 IRanWt=          -1 IRanGd=           0 AccXCQ= 0.00D+00.
 NRdTot=     191 NPtTot=       24138 NUsed=       25527 NTot=       25559
 NSgBfM=    69    69    69    69    69 NAtAll=     3     3.
 Leave Link  302 at Sat Oct  6 02:09:34 2012, MaxMem=  262144000 cpu:       0.2
 (Enter /apps/rhel5/g09-C.01/g09/l303.exe)
 DipDrv:  MaxL=1.
 Leave Link  303 at Sat Oct  6 02:09:34 2012, MaxMem=  262144000 cpu:       0.0
 (Enter /apps/rhel5/g09-C.01/g09/l401.exe)
 Harris functional with IExCor=  608 diagonalized for initial guess.
 ExpMin= 8.45D-02 ExpMax= 8.59D+03 ExpMxC= 1.30D+03 IAcc=2 IRadAn=         4 AccDes= 0.00D+00
 HarFok:  IExCor=  608 AccDes= 0.00D+00 IRadAn=         4 IDoV= 1
 ScaDFX=  1.000000  1.000000  1.000000  1.000000
 FoFCou: FMM=F IPFlag=           0 FMFlag=      100000 FMFlg1=           0
         NFxFlg=           0 DoJE=T BraDBF=F KetDBF=T FulRan=T
         Omega=  0.000000  0.000000  1.000000  0.000000  0.000000 ICntrl=     500 IOpCl=  0
         NMat0=    1 NMatS0=    1 NMatT0=    0 NMatD0=    1 NMtDS0=    0 NMtDT0=    0
         I1Cent=           4 NGrid=           0.
 Petite list used in FoFCou.
 Harris En= -225.479149156264    
 Mixing orbitals, IMix= 1 IMixAn=  0 NRI=1 NE=   12 Coef=  7.07106781D-01  7.07106781D-01
 Initial guess orbital symmetries:
       Occupied  (A1) (B2) (A1) (A1) (B2) (A1) (B2) (A1) (B1) (A2)
                 (B2) (?A)
       Virtual   (?A) (A1) (A1) (B2) (B1) (A1) (B2) (A2) (A1) (B1)
                 (A1) (B2) (B2) (A1) (B2) (A1) (B1) (A1) (B2) (B2)
                 (A1) (A2) (B1) (B2) (A1) (B2) (A1) (A2) (A1) (B1)
                 (B2) (A1) (A2) (B1) (B2) (A1) (B2) (B1) (A2) (A1)
                 (A1) (B2) (B1) (B2) (A1) (A2) (B2) (A1) (B1) (A1)
                 (B2) (A1) (A1) (B2)
 Leave Link  401 at Sat Oct  6 02:09:34 2012, MaxMem=  262144000 cpu:       0.3
 (Enter /apps/rhel5/g09-C.01/g09/l502.exe)
 Closed shell SCF:
 Requested convergence on RMS density matrix=1.00D-07 within 400 cycles.
 Requested convergence on MAX density matrix=1.00D-05.
 Requested convergence on             energy=1.00D-05.
 Level shift goal  0.100 maximum shift  0.100.
 No special actions if energy rises.
 Dynamic level shift is on during FON iterations.
 Using DIIS extrapolation, IDIIS=    10.
 Integral symmetry usage will be decided dynamically.
        25487 words used for storage of precomputed grid.
 Keep J ints in memory in canonical form, NReq=4009522.
 IEnd=      203930 IEndB=      203930 NGot=   262144000 MDV=   259188353
 LenX=   259188353 LenY=   259183151
 Symmetry not used in FoFDir.
 MinBra= 0 MaxBra= 2 Meth= 1.
 IRaf=       0 NMat=   1 IRICut=       1 DoRegI=T DoRafI=F ISym2E= 0 JSym2E=0.
 Integral accuracy reduced to 1.0D-05 until final iterations.
 An orbital has undefined symmetry, so N**3 symmetry is turned off.

 Cycle   1  Pass 0  IDiag  1:
 Density matrix breaks symmetry, PCut= 1.00D-04
 Density matrix has no symmetry -- integrals replicated.
 E= -225.257348745265    
 DIIS: error= 4.72D-02 at cycle   1 NSaved=   1.
 NSaved= 1 IEnMin= 1 EnMin= -225.257348745265     IErMin= 1 ErrMin= 4.72D-02
 ErrMax= 4.72D-02 EMaxC= 1.00D+00 BMatC= 1.25D-01 BMatP= 1.25D-01
 IDIUse=1 WtCom= 1.00D+00 WtEn= 0.00D+00
 Coeff-Com:  0.100D+01
 Coeff:      0.100D+01
 Gap=    -0.041 Goal=     0.100 Shift=    0.100
 T= 1768. Gap= 0.098 NK=0 IS=    1 IE=   66
          NO(<0.9)=   0  NV(>0.1)=   0  12.00e < EF 0.00e >EF  Err=9.2D-11
 GapD=   -0.041 DampG=0.250 DampE=0.500 DampFc=0.1250 IDamp=-1.
 Damping current iteration by 1.25D-01
 RMSDP=9.88D-03 MaxDP=1.29D-01              OVMax= 4.42D-01

 Cycle   2  Pass 0  IDiag  1:
 Density matrix breaks symmetry, PCut= 1.00D-04
 Density matrix has no symmetry -- integrals replicated.
 E= -225.292549997465     Delta-E=       -0.035201252200 Rises=F Damp=T
 DIIS: error= 3.02D-02 at cycle   2 NSaved=   2.
 NSaved= 2 IEnMin= 2 EnMin= -225.292549997465     IErMin= 2 ErrMin= 3.02D-02
 ErrMax= 3.02D-02 EMaxC= 1.00D+00 BMatC= 5.60D-02 BMatP= 1.25D-01
 IDIUse=1 WtCom= 1.00D+00 WtEn= 0.00D+00
 Coeff-Com: -0.173D+01 0.273D+01
 Coeff:     -0.173D+01 0.273D+01
 Gap=     0.059 Goal=     0.100 Shift=    0.041
 T= 1691. Gap= 0.129 NK=3 IS=    7 IE=   19
          NO(<0.9)=   0  NV(>0.1)=   0  12.00e < EF 0.00e >EF  Err=0.0D+00
 GapD=    0.059 DampG=0.500 DampE=0.500 DampFc=0.2500 IDamp=-1.
 Damping current iteration by 2.50D-01
 RMSDP=1.04D-02 MaxDP=6.09D-02 DE=-3.52D-02 OVMax= 3.46D-01

 Cycle   3  Pass 0  IDiag  1:
 Density matrix breaks symmetry, PCut= 1.00D-04
 Density matrix has no symmetry -- integrals replicated.
 E= -225.338170002311     Delta-E=       -0.045620004846 Rises=F Damp=T
 DIIS: error= 2.34D-02 at cycle   3 NSaved=   3.
 NSaved= 3 IEnMin= 3 EnMin= -225.338170002311     IErMin= 3 ErrMin= 2.34D-02
 ErrMax= 2.34D-02 EMaxC= 1.00D+00 BMatC= 3.17D-02 BMatP= 5.60D-02
 IDIUse=1 WtCom= 1.00D+00 WtEn= 0.00D+00
 Coeff-Com: -0.100D+01 0.204D+00 0.180D+01
 Coeff:     -0.100D+01 0.204D+00 0.180D+01
 Gap=     0.086 Goal=     0.100 Shift=    0.014
 T= 1565. Gap= 0.100 NK=3 IS=   11 IE=   19
          NO(<0.9)=   0  NV(>0.1)=   0  12.00e < EF 0.00e >EF  Err=0.0D+00
 GapD=    0.086 DampG=0.500 DampE=0.500 DampFc=0.2500 IDamp=-1.
 Damping current iteration by 2.50D-01
 RMSDP=8.18D-03 MaxDP=4.71D-02 DE=-4.56D-02 OVMax= 4.68D-02

 Cycle   4  Pass 0  IDiag  1:
 Density matrix breaks symmetry, PCut= 1.00D-04
 Density matrix has no symmetry -- integrals replicated.
 E= -225.369807337086     Delta-E=       -0.031637334775 Rises=F Damp=T
 DIIS: error= 1.75D-02 at cycle   4 NSaved=   4.
 NSaved= 4 IEnMin= 4 EnMin= -225.369807337086     IErMin= 4 ErrMin= 1.75D-02
 ErrMax= 1.75D-02 EMaxC= 1.00D+00 BMatC= 1.75D-02 BMatP= 3.17D-02
 IDIUse=1 WtCom= 1.00D+00 WtEn= 0.00D+00
 Coeff-Com:  0.128D-01 0.136D+01-0.578D+01 0.541D+01
 Coeff:      0.128D-01 0.136D+01-0.578D+01 0.541D+01
 Gap=     0.076 Goal=     0.100 Shift=    0.024
 T= 1355. Gap= 0.101 NK=3 IS=   11 IE=   19
          NO(<0.9)=   0  NV(>0.1)=   0  12.00e < EF 0.00e >EF  Err=1.8D-15
 GapD=    0.076 DampG=0.500 DampE=0.500 DampFc=0.2500 IDamp=-1.
 Damping current iteration by 2.50D-01
 RMSDP=5.58D-03 MaxDP=3.19D-02 DE=-3.16D-02 OVMax= 6.44D-02

 Cycle   5  Pass 0  IDiag  1:
 Density matrix breaks symmetry, PCut= 1.00D-04
 Density matrix has no symmetry -- integrals replicated.
 E= -225.391056105033     Delta-E=       -0.021248767947 Rises=F Damp=T
 DIIS: error= 1.31D-02 at cycle   5 NSaved=   5.
 NSaved= 5 IEnMin= 5 EnMin= -225.391056105033     IErMin= 5 ErrMin= 1.31D-02
 ErrMax= 1.31D-02 EMaxC= 1.00D+00 BMatC= 9.57D-03 BMatP= 1.75D-02
 IDIUse=1 WtCom= 1.00D+00 WtEn= 0.00D+00
 Coeff-Com:  0.105D+00 0.669D+00-0.263D+01-0.164D-01 0.287D+01
 Coeff:      0.105D+00 0.669D+00-0.263D+01-0.164D-01 0.287D+01
 Gap=     0.076 Goal=     0.100 Shift=    0.024
 T= 1190. Gap= 0.100 NK=3 IS=   11 IE=   19
          NO(<0.9)=   0  NV(>0.1)=   0  12.00e < EF 0.00e >EF  Err=0.0D+00
 GapD=    0.076 DampG=0.500 DampE=0.500 DampFc=0.2500 IDamp=-1.
 Damping current iteration by 2.50D-01
 RMSDP=4.15D-03 MaxDP=2.36D-02 DE=-2.12D-02 OVMax= 7.22D-03

 Cycle   6  Pass 0  IDiag  1:
 Density matrix breaks symmetry, PCut= 1.00D-04
 Density matrix has no symmetry -- integrals replicated.
 E= -225.405872482529     Delta-E=       -0.014816377496 Rises=F Damp=T
 DIIS: error= 9.93D-03 at cycle   6 NSaved=   6.
 NSaved= 6 IEnMin= 6 EnMin= -225.405872482529     IErMin= 6 ErrMin= 9.93D-03
 ErrMax= 9.93D-03 EMaxC= 1.00D+00 BMatC= 5.28D-03 BMatP= 9.57D-03
 IDIUse=1 WtCom= 1.00D+00 WtEn= 0.00D+00
 Coeff-Com:  0.937D-01-0.105D+00 0.194D+00-0.132D+00-0.371D+01 0.466D+01
 Coeff:      0.937D-01-0.105D+00 0.194D+00-0.132D+00-0.371D+01 0.466D+01
 Gap=     0.075 Goal=     0.100 Shift=    0.025
 T= 1017. Gap= 0.100 NK=3 IS=   11 IE=   19
          NO(<0.9)=   0  NV(>0.1)=   0  12.00e < EF 0.00e >EF  Err=0.0D+00
 GapD=    0.075 DampG=0.500 DampE=1.000 DampFc=0.5000 IDamp=-1.
 Damping current iteration by 5.00D-01
 RMSDP=3.15D-03 MaxDP=1.80D-02 DE=-1.48D-02 OVMax= 4.36D-03

 Cycle   7  Pass 0  IDiag  1:
 Density matrix breaks symmetry, PCut= 1.00D-04
 Density matrix has no symmetry -- integrals replicated.
 E= -225.426420342635     Delta-E=       -0.020547860106 Rises=F Damp=T
 DIIS: error= 4.72D-03 at cycle   7 NSaved=   7.
 NSaved= 7 IEnMin= 7 EnMin= -225.426420342635     IErMin= 7 ErrMin= 4.72D-03
 ErrMax= 4.72D-03 EMaxC= 1.00D+00 BMatC= 1.25D-03 BMatP= 5.28D-03
 IDIUse=1 WtCom= 1.00D+00 WtEn= 0.00D+00
 Coeff-Com:  0.365D-01-0.134D+00 0.333D+00 0.405D+00-0.209D+01 0.639D+00
 Coeff-Com:  0.181D+01
 Coeff:      0.365D-01-0.134D+00 0.333D+00 0.405D+00-0.209D+01 0.639D+00
 Coeff:      0.181D+01
 Gap=     0.075 Goal=     0.100 Shift=    0.025
 T=  790. Gap= 0.100 NK=3 IS=   11 IE=   19
          NO(<0.9)=   0  NV(>0.1)=   0  12.00e < EF 0.00e >EF  Err=0.0D+00
 GapD=    0.075 DampG=0.500 DampE=1.000 DampFc=0.5000 IDamp=-1.
 Damping current iteration by 5.00D-01
 RMSDP=1.58D-03 MaxDP=8.89D-03 DE=-2.05D-02 OVMax= 1.26D-03

 Cycle   8  Pass 0  IDiag  1:
 Density matrix breaks symmetry, PCut= 1.00D-04
 Density matrix has no symmetry -- integrals replicated.
 E= -225.435939015235     Delta-E=       -0.009518672599 Rises=F Damp=T
 DIIS: error= 2.35D-03 at cycle   8 NSaved=   8.
 NSaved= 8 IEnMin= 8 EnMin= -225.435939015235     IErMin= 8 ErrMin= 2.35D-03
 ErrMax= 2.35D-03 EMaxC= 1.00D+00 BMatC= 3.04D-04 BMatP= 1.25D-03
 IDIUse=1 WtCom= 1.00D+00 WtEn= 0.00D+00
 Coeff-Com:  0.406D-02-0.175D-01 0.410D-01 0.818D-01-0.118D+00-0.132D+00
 Coeff-Com: -0.787D+00 0.193D+01
 Coeff:      0.406D-02-0.175D-01 0.410D-01 0.818D-01-0.118D+00-0.132D+00
 Coeff:     -0.787D+00 0.193D+01
 Gap=     0.076 Goal=     0.100 Shift=    0.024
 T=  496. Gap= 0.100 NK=3 IS=    7 IE=   19
          NO(<0.9)=   0  NV(>0.1)=   0  12.00e < EF 0.00e >EF  Err=0.0D+00
 GapD=    0.076 DampG=0.500 DampE=1.000 DampFc=0.5000 IDamp=-1.
 Damping current iteration by 5.00D-01
 RMSDP=7.88D-04 MaxDP=4.46D-03 DE=-9.52D-03 OVMax= 2.32D-04

 Cycle   9  Pass 0  IDiag  1:
 Density matrix breaks symmetry, PCut= 1.00D-04
 Density matrix has no symmetry -- integrals replicated.
 E= -225.440517122788     Delta-E=       -0.004578107553 Rises=F Damp=T
 DIIS: error= 1.18D-03 at cycle   9 NSaved=   9.
 NSaved= 9 IEnMin= 9 EnMin= -225.440517122788     IErMin= 9 ErrMin= 1.18D-03
 ErrMax= 1.18D-03 EMaxC= 1.00D+00 BMatC= 7.60D-05 BMatP= 3.04D-04
 IDIUse=1 WtCom= 1.00D+00 WtEn= 0.00D+00
 Coeff-Com: -0.122D-02-0.288D-02 0.198D-01-0.205D-01 0.530D-01-0.354D-01
 Coeff-Com: -0.220D+00-0.583D+00 0.179D+01
 Coeff:     -0.122D-02-0.288D-02 0.198D-01-0.205D-01 0.530D-01-0.354D-01
 Coeff:     -0.220D+00-0.583D+00 0.179D+01
 Gap=     0.076 Goal=     0.100 Shift=    0.024
 T=   62. Gap= 0.100 NK=3 IS=    7 IE=   19
          NO(<0.9)=   0  NV(>0.1)=   0  12.00e < EF 0.00e >EF  Err=0.0D+00
 GapD=    0.076 DampG=0.500 DampE=1.000 DampFc=0.5000 IDamp=-1.
 Damping current iteration by 5.00D-01
 RMSDP=3.94D-04 MaxDP=2.23D-03 DE=-4.58D-03 OVMax= 6.34D-05

 Cycle  10  Pass 0  IDiag  1:
 Density matrix breaks symmetry, PCut= 1.00D-04
 Density matrix has no symmetry -- integrals replicated.
 E= -225.442762722579     Delta-E=       -0.002245599791 Rises=F Damp=T
 DIIS: error= 5.94D-04 at cycle  10 NSaved=  10.
 NSaved=10 IEnMin=10 EnMin= -225.442762722579     IErMin=10 ErrMin= 5.94D-04
 ErrMax= 5.94D-04 EMaxC= 1.00D+00 BMatC= 1.91D-05 BMatP= 7.60D-05
 IDIUse=1 WtCom= 1.00D+00 WtEn= 0.00D+00
 Coeff-Com: -0.578D-03 0.322D-03 0.561D-02-0.133D-01 0.316D-01-0.140D-01
 Coeff-Com: -0.619D-01-0.243D+00-0.949D-01 0.139D+01
 Coeff:     -0.578D-03 0.322D-03 0.561D-02-0.133D-01 0.316D-01-0.140D-01
 Coeff:     -0.619D-01-0.243D+00-0.949D-01 0.139D+01
 Gap=     0.076 Goal=     0.100 Shift=    0.024
 RMSDP=1.97D-04 MaxDP=1.12D-03 DE=-2.25D-03 OVMax= 6.53D-05

 Cycle  11  Pass 0  IDiag  1:
 E= -225.444982860710     Delta-E=       -0.002220138132 Rises=F Damp=F
 DIIS: error= 8.16D-07 at cycle   1 NSaved=   1.
 NSaved= 1 IEnMin= 1 EnMin= -225.444982860710     IErMin= 1 ErrMin= 8.16D-07
 ErrMax= 8.16D-07 EMaxC= 1.00D+00 BMatC= 2.69D-11 BMatP= 2.69D-11
 IDIUse=1 WtCom= 1.00D+00 WtEn= 0.00D+00
 Coeff-Com:  0.100D+01
 Coeff:      0.100D+01
 Gap=     0.076 Goal=     0.100 Shift=    0.024
 RMSDP=2.30D-07 MaxDP=1.87D-06 DE=-2.22D-03 OVMax= 1.31D-05

 Initial convergence to 1.0D-05 achieved.  Increase integral accuracy.
 Cycle  12  Pass 1  IDiag  1:
 E= -225.444987120030     Delta-E=       -0.000004259320 Rises=F Damp=F
 DIIS: error= 1.39D-05 at cycle   1 NSaved=   1.
 NSaved= 1 IEnMin= 1 EnMin= -225.444987120030     IErMin= 1 ErrMin= 1.39D-05
 ErrMax= 1.39D-05 EMaxC= 1.00D+00 BMatC= 1.77D-08 BMatP= 1.77D-08
 IDIUse=1 WtCom= 1.00D+00 WtEn= 0.00D+00
 Coeff-Com:  0.100D+01
 Coeff:      0.100D+01
 Gap=     0.076 Goal=     0.100 Shift=    0.024
 RMSDP=2.30D-07 MaxDP=1.87D-06 DE=-4.26D-06 OVMax= 1.08D-04

 Cycle  13  Pass 1  IDiag  1:
 E= -225.444986217970     Delta-E=        0.000000902060 Rises=F Damp=F
 DIIS: error= 3.81D-06 at cycle   2 NSaved=   2.
 NSaved= 2 IEnMin= 1 EnMin= -225.444987120030     IErMin= 2 ErrMin= 3.81D-06
 ErrMax= 3.81D-06 EMaxC= 1.00D+00 BMatC= 9.87D-10 BMatP= 1.77D-08
 IDIUse=1 WtCom= 1.00D+00 WtEn= 0.00D+00
 Coeff-Com:  0.351D-01 0.965D+00
 Coeff:      0.351D-01 0.965D+00
 Gap=     0.076 Goal=     0.100 Shift=    0.024
 RMSDP=1.26D-06 MaxDP=1.26D-05 DE= 9.02D-07 OVMax= 2.54D-05

 Cycle  14  Pass 1  IDiag  1:
 E= -225.444985981052     Delta-E=        0.000000236918 Rises=F Damp=F
 DIIS: error= 9.68D-06 at cycle   3 NSaved=   3.
 NSaved= 3 IEnMin= 1 EnMin= -225.444987120030     IErMin= 2 ErrMin= 3.81D-06
 ErrMax= 9.68D-06 EMaxC= 1.00D+00 BMatC= 4.66D-09 BMatP= 9.87D-10
 IDIUse=1 WtCom= 1.00D+00 WtEn= 0.00D+00
 Coeff-Com: -0.156D-01 0.703D+00 0.313D+00
 Coeff:     -0.156D-01 0.703D+00 0.313D+00
 Gap=     0.076 Goal=   None    Shift=    0.000
 RMSDP=4.68D-07 MaxDP=6.35D-06 DE= 2.37D-07 OVMax= 2.14D-05

 Cycle  15  Pass 1  IDiag  1:
 E= -225.444985907675     Delta-E=        0.000000073377 Rises=F Damp=F
 DIIS: error= 2.15D-06 at cycle   4 NSaved=   4.
 NSaved= 4 IEnMin= 1 EnMin= -225.444987120030     IErMin= 4 ErrMin= 2.15D-06
 ErrMax= 2.15D-06 EMaxC= 1.00D+00 BMatC= 1.23D-10 BMatP= 9.87D-10
 IDIUse=1 WtCom= 1.00D+00 WtEn= 0.00D+00
 Coeff-Com: -0.491D-02 0.366D+00 0.187D+00 0.451D+00
 Coeff:     -0.491D-02 0.366D+00 0.187D+00 0.451D+00
 Gap=     0.076 Goal=   None    Shift=    0.000
 RMSDP=1.12D-07 MaxDP=1.86D-06 DE= 7.34D-08 OVMax= 3.26D-06

 Cycle  16  Pass 1  IDiag  1:
 E= -225.444985907762     Delta-E=       -0.000000000087 Rises=F Damp=F
 DIIS: error= 2.37D-07 at cycle   5 NSaved=   5.
 NSaved= 5 IEnMin= 1 EnMin= -225.444987120030     IErMin= 5 ErrMin= 2.37D-07
 ErrMax= 2.37D-07 EMaxC= 1.00D+00 BMatC= 1.62D-12 BMatP= 1.23D-10
 IDIUse=1 WtCom= 1.00D+00 WtEn= 0.00D+00
 Coeff-Com: -0.121D-02 0.300D-01 0.640D-02 0.885D-01 0.876D+00
 Coeff:     -0.121D-02 0.300D-01 0.640D-02 0.885D-01 0.876D+00
 Gap=     0.076 Goal=   None    Shift=    0.000
 RMSDP=1.43D-08 MaxDP=1.46D-07 DE=-8.70D-11 OVMax= 3.90D-07

 SCF Done:  E(RPW91-PW91) =  -225.444985908     A.U. after   16 cycles
             Convg  =    0.1434D-07             -V/T =  2.0003
 KE= 2.253720360922D+02 PE=-6.765527190723D+02 EE= 1.539365489802D+02
 Leave Link  502 at Sat Oct  6 02:09:37 2012, MaxMem=  262144000 cpu:       2.3
 (Enter /apps/rhel5/g09-C.01/g09/l601.exe)
 Copying SCF densities to generalized density rwf, IOpCl= 0 IROHF=0.

 **********************************************************************

            Population analysis using the SCF density.

 **********************************************************************

 Orbital symmetries:
       Occupied  (A1) (B2) (A1) (A1) (B2) (A1) (B1) (A1) (B2) (A2)
                 (B2) (A1)
       Virtual   (B1) (A1) (A1) (B2) (B1) (A1) (B2) (A2) (A1) (B2)
                 (A1) (B1) (B2) (A1) (B2) (B1) (A1) (A1) (B2) (B2)
                 (A1) (A2) (B1) (B2) (A1) (A1) (B2) (A2) (A1) (B1)
                 (B2) (A1) (A2) (B1) (B2) (A1) (B2) (B1) (A2) (A1)
                 (A1) (B2) (B1) (A1) (B2) (A2) (B2) (B1) (A1) (A1)
                 (B2) (A1) (A1) (B2)
 The electronic state is 1-A1.
 Alpha  occ. eigenvalues --  -19.06311 -18.87453 -18.87451  -1.32966  -1.05536
 Alpha  occ. eigenvalues --   -0.70479  -0.58471  -0.55629  -0.55083  -0.34393
 Alpha  occ. eigenvalues --   -0.30063  -0.29358
 Alpha virt. eigenvalues --   -0.21802   0.04576   0.05015   0.07711   0.09555
 Alpha virt. eigenvalues --    0.10786   0.14887   0.17178   0.18386   0.18797
 Alpha virt. eigenvalues --    0.19253   0.19589   0.25686   0.28890   0.33366
 Alpha virt. eigenvalues --    0.84814   0.85172   0.87568   0.89386   0.93481
 Alpha virt. eigenvalues --    0.93628   0.95007   0.96407   1.02207   1.15083
 Alpha virt. eigenvalues --    1.41071   1.44639   2.01825   2.11019   2.20140
 Alpha virt. eigenvalues --    2.54511   2.56010   2.63093   2.64295   2.67208
 Alpha virt. eigenvalues --    2.76564   2.89010   3.17875   3.34389   3.38120
 Alpha virt. eigenvalues --    3.73762   3.74307   4.52084   4.59538   4.60574
 Alpha virt. eigenvalues --    4.76507   4.78229   4.85153   4.86951   5.64818
 Alpha virt. eigenvalues --    6.34051  49.17499  49.27678  49.37148
          Condensed to atoms (all electrons):
              1          2          3
     1  O    7.428434   0.169636   0.169636
     2  O    0.169636   8.041811  -0.095301
     3  O    0.169636  -0.095301   8.041811
 Mulliken atomic charges:
              1
     1  O    0.232294
     2  O   -0.116147
     3  O   -0.116147
 Sum of Mulliken atomic charges =   0.00000
 Mulliken charges with hydrogens summed into heavy atoms:
              1
     1  O    0.232294
     2  O   -0.116147
     3  O   -0.116147
 Sum of Mulliken charges with hydrogens summed into heavy atoms =   0.00000
 Electronic spatial extent (au):  <R**2>=            105.7508
 Charge=              0.0000 electrons
 Dipole moment (field-independent basis, Debye):
    X=              0.0000    Y=              0.0000    Z=              0.7304  Tot=              0.7304
 Quadrupole moment (field-independent basis, Debye-Ang):
   XX=            -14.5553   YY=            -17.8103   ZZ=            -16.3059
   XY=              0.0000   XZ=              0.0000   YZ=              0.0000
 Traceless Quadrupole moment (field-independent basis, Debye-Ang):
   XX=              1.6685   YY=             -1.5865   ZZ=             -0.0820
   XY=              0.0000   XZ=              0.0000   YZ=              0.0000
 Octapole moment (field-independent basis, Debye-Ang**2):
  XXX=              0.0000  YYY=              0.0000  ZZZ=              1.3169  XYY=              0.0000
  XXY=              0.0000  XXZ=              0.3384  XZZ=              0.0000  YZZ=              0.0000
  YYZ=             -0.2369  XYZ=              0.0000
 Hexadecapole moment (field-independent basis, Debye-Ang**3):
 XXXX=            -10.4773 YYYY=            -84.2222 ZZZZ=            -21.8951 XXXY=              0.0000
 XXXZ=              0.0000 YYYX=              0.0000 YYYZ=              0.0000 ZZZX=              0.0000
 ZZZY=              0.0000 XXYY=            -15.1699 XXZZ=             -5.2402 YYZZ=            -17.1338
 XXYZ=              0.0000 YYXZ=              0.0000 ZZXY=              0.0000
 N-N= 7.179914809210D+01 E-N=-6.765527131861D+02  KE= 2.253720360922D+02
 Symmetry A1   KE= 1.398695671115D+02
 Symmetry A2   KE= 5.209096861507D+00
 Symmetry B1   KE= 4.659550018997D+00
 Symmetry B2   KE= 7.563382210021D+01
 No NMR shielding tensors so no spin-rotation constants.
 Leave Link  601 at Sat Oct  6 02:09:37 2012, MaxMem=  262144000 cpu:       0.2
 (Enter /apps/rhel5/g09-C.01/g09/l701.exe)
 Compute integral first derivatives.
 ... and contract with generalized density number  0.
 Leave Link  701 at Sat Oct  6 02:09:37 2012, MaxMem=  262144000 cpu:       0.2
 (Enter /apps/rhel5/g09-C.01/g09/l702.exe)
 L702 exits ... SP integral derivatives will be done elsewhere.
 Leave Link  702 at Sat Oct  6 02:09:37 2012, MaxMem=  262144000 cpu:       0.0
 (Enter /apps/rhel5/g09-C.01/g09/l703.exe)
 Compute integral first derivatives, UseDBF=F ICtDFT=           0.
 Integral derivatives from FoFDir, PRISM(SPDF).
 Calling FoFJK, ICntrl=      2527 FMM=F ISym2X=1 I1Cent= 0 IOpClX= 0 NMat=1 NMatS=1 NMatT=0.
 FoFCou: FMM=F IPFlag=           0 FMFlag=      100000 FMFlg1=         800
         NFxFlg=           0 DoJE=F BraDBF=F KetDBF=F FulRan=T
         Omega=  0.000000  0.000000  1.000000  0.000000  0.000000 ICntrl=    2527 IOpCl=  0
         NMat0=    1 NMatS0=    1 NMatT0=    0 NMatD0=    1 NMtDS0=    0 NMtDT0=    0
         I1Cent=           0 NGrid=           0.
 Petite list used in FoFCou.
 Leave Link  703 at Sat Oct  6 02:09:38 2012, MaxMem=  262144000 cpu:       0.6
 (Enter /apps/rhel5/g09-C.01/g09/l716.exe)
 Dipole        = 2.70104363D-17 3.55271368D-15 2.87368883D-01
 ***** Axes restored to original set *****
 -------------------------------------------------------------------
 Center     Atomic                   Forces (Hartrees/Bohr)
 Number     Number              X              Y              Z
 -------------------------------------------------------------------
      1        8          -0.044511680    0.000000000   -0.027276793
      2        8          -0.011192289    0.000000000    0.068220783
      3        8           0.055703970    0.000000000   -0.040943990
 -------------------------------------------------------------------
 Cartesian Forces:  Max     0.068220783 RMS     0.036944400
 Leave Link  716 at Sat Oct  6 02:09:39 2012, MaxMem=  262144000 cpu:       0.0
 (Enter /apps/rhel5/g09-C.01/g09/l103.exe)

 GradGradGradGradGradGradGradGradGradGradGradGradGradGradGradGradGradGrad
 Berny optimization.
 Internal  Forces:  Max     0.068220783 RMS     0.057659830
 Search for a local minimum.
 Step number   1 out of a maximum of   20
 All quantities printed in internal units (Hartrees-Bohrs-Radians)
 Swaping is turned off.
 Second derivative matrix not updated -- first step.
 The second derivative matrix:
                          R1        R2        A1
           R1           0.95383
           R2           0.00000   0.95383
           A1           0.00000   0.00000   0.25000
 ITU=  0
     Eigenvalues ---    0.25000   0.95383   0.95383
 Angle between quadratic step and forces=  30.61 degrees.
 Linear search not attempted -- option 19 set.
 Iteration  1 RMS(Cart)=  0.10437072 RMS(Int)=  0.00299095
 Iteration  2 RMS(Cart)=  0.00242081 RMS(Int)=  0.00000414
 Iteration  3 RMS(Cart)=  0.00000497 RMS(Int)=  0.00000000
 Iteration  4 RMS(Cart)=  0.00000000 RMS(Int)=  0.00000000
 ClnCor:  largest displacement from symmetrization is 2.32D-15 for atom     3.
 Variable       Old X    -DE/DX   Delta X   Delta X   Delta X     New X
                                 (Linear)    (Quad)   (Total)
    R1        2.30547   0.06822   0.00000   0.07152   0.07152   2.37699
    R2        2.30547   0.06822   0.00000   0.07152   0.07152   2.37699
    A1        2.04204   0.02580   0.00000   0.10321   0.10321   2.14525
         Item               Value     Threshold  Converged?
 Maximum Force            0.068221     0.000450     NO 
 RMS     Force            0.057660     0.000300     NO 
 Maximum Displacement     0.116309     0.001800     NO 
 RMS     Displacement     0.105036     0.001200     NO 
 Predicted change in Energy=-6.210977D-03
 GradGradGradGradGradGradGradGradGradGradGradGradGradGradGradGradGradGrad

 Leave Link  103 at Sat Oct  6 02:09:39 2012, MaxMem=  262144000 cpu:       0.0
 (Enter /apps/rhel5/g09-C.01/g09/l202.exe)
                          Input orientation:                          
 ---------------------------------------------------------------------
 Center     Atomic      Atomic             Coordinates (Angstroms)
 Number     Number       Type             X           Y           Z
 ---------------------------------------------------------------------
      1          8           0        0.020704    0.000000    0.012687
      2          8           0       -0.044181    0.000000    1.268861
      3          8           0        1.110505    0.000000   -0.615416
 ---------------------------------------------------------------------
                    Distance matrix (angstroms):
                    1          2          3
     1  O    0.000000
     2  O    1.257848   0.000000
     3  O    1.257848   2.209933   0.000000
 Stoichiometry    O3
 Framework group  C2V[C2(O),SGV(O2)]
 Deg. of freedom     2
 Full point group                 C2V     NOp   4
 RotChk:  IX=0 Diff= 5.52D-16
 Largest Abelian subgroup         C2V     NOp   4
 Largest concise Abelian subgroup C2      NOp   2
                         Standard orientation:                         
 ---------------------------------------------------------------------
 Center     Atomic      Atomic             Coordinates (Angstroms)
 Number     Number       Type             X           Y           Z
 ---------------------------------------------------------------------
      1          8           0        0.000000    0.000000    0.400684
      2          8           0        0.000000    1.104966   -0.200342
      3          8           0        0.000000   -1.104966   -0.200342
 ---------------------------------------------------------------------
 Rotational constants (GHZ):    131.2020792     12.9391935     11.7776752
 Leave Link  202 at Sat Oct  6 02:09:39 2012, MaxMem=  262144000 cpu:       0.0
 (Enter /apps/rhel5/g09-C.01/g09/l301.exe)
 Standard basis: 6-311++G(d,p) (5D, 7F)
 Ernie: Thresh=  0.10000D-02 Tol=  0.10000D-05 Strict=F.
 There are    27 symmetry adapted basis functions of A1  symmetry.
 There are     7 symmetry adapted basis functions of A2  symmetry.
 There are    11 symmetry adapted basis functions of B1  symmetry.
 There are    21 symmetry adapted basis functions of B2  symmetry.
 Integral buffers will be    131072 words long.
 Raffenetti 2 integral format.
 Two-electron integral symmetry is turned on.
    66 basis functions,   108 primitive gaussians,    69 cartesian basis functions
    12 alpha electrons       12 beta electrons
       nuclear repulsion energy        69.1747024956 Hartrees.
 IExCor=  608 DFT=T Ex=PW91 Corr=PW91 ExCW=0 ScaHFX=  0.000000
 ScaDFX=  1.000000  1.000000  1.000000  1.000000 ScalE2=  1.000000  1.000000
 IRadAn=      0 IRanWt=     -1 IRanGd=            0 ICorTp=0
 NAtoms=    3 NActive=    3 NUniq=    2 SFac= 2.25D+00 NAtFMM=   60 NAOKFM=F Big=F
 Leave Link  301 at Sat Oct  6 02:09:39 2012, MaxMem=  262144000 cpu:       0.1
 (Enter /apps/rhel5/g09-C.01/g09/l302.exe)
 NPDir=0 NMtPBC=     1 NCelOv=     1 NCel=       1 NClECP=     1 NCelD=      1
         NCelK=      1 NCelE2=     1 NClLst=     1 CellRange=     0.0.
 One-electron integrals computed using PRISM.
 One-electron integral symmetry used in STVInt
 NBasis=    66 RedAO= T  NBF=    27     7    11    21
 NBsUse=    66 1.00D-06 NBFU=    27     7    11    21
 Precomputing XC quadrature grid using
 IXCGrd= 2 IRadAn=           0 IRanWt=          -1 IRanGd=           0 AccXCQ= 0.00D+00.
 NRdTot=     191 NPtTot=       24138 NUsed=       25527 NTot=       25559
 NSgBfM=    69    69    69    69    69 NAtAll=     3     3.
 Leave Link  302 at Sat Oct  6 02:09:39 2012, MaxMem=  262144000 cpu:       0.2
 (Enter /apps/rhel5/g09-C.01/g09/l303.exe)
 DipDrv:  MaxL=1.
 Leave Link  303 at Sat Oct  6 02:09:39 2012, MaxMem=  262144000 cpu:       0.1
 (Enter /apps/rhel5/g09-C.01/g09/l401.exe)
 Initial guess read from the read-write file.
 B after Tr=     0.000000    0.000000    0.000000
         Rot=    1.000000    0.000000    0.000000    0.000000 Ang=   0.00 deg.
 Guess basis will be translated and rotated to current coordinates.
 Initial guess orbital symmetries:
       Occupied  (A1) (B2) (A1) (A1) (B2) (A1) (B1) (A1) (B2) (A2)
                 (B2) (A1)
       Virtual   (B1) (A1) (A1) (B2) (B1) (A1) (B2) (A2) (A1) (B2)
                 (A1) (B1) (B2) (A1) (B2) (B1) (A1) (A1) (B2) (B2)
                 (A1) (A2) (B1) (B2) (A1) (A1) (B2) (A2) (A1) (B1)
                 (B2) (A1) (A2) (B1) (B2) (A1) (B2) (B1) (A2) (A1)
                 (A1) (B2) (B1) (A1) (B2) (A2) (B2) (B1) (A1) (A1)
                 (B2) (A1) (A1) (B2)
 The electronic state of the initial guess is 1-A1.
 Generating alternative initial guess.
 Harris functional with IExCor=  608 diagonalized for initial guess.
 ExpMin= 8.45D-02 ExpMax= 8.59D+03 ExpMxC= 1.30D+03 IAcc=2 IRadAn=         4 AccDes= 0.00D+00
 HarFok:  IExCor=  608 AccDes= 0.00D+00 IRadAn=         4 IDoV= 1
 ScaDFX=  1.000000  1.000000  1.000000  1.000000
 FoFCou: FMM=F IPFlag=           0 FMFlag=      100000 FMFlg1=           0
         NFxFlg=           0 DoJE=T BraDBF=F KetDBF=T FulRan=T
         Omega=  0.000000  0.000000  1.000000  0.000000  0.000000 ICntrl=     500 IOpCl=  0
         NMat0=    1 NMatS0=    1 NMatT0=    0 NMatD0=    1 NMtDS0=    0 NMtDT0=    0
         I1Cent=           4 NGrid=           0.
 Petite list used in FoFCou.
 Harris En= -225.482381585205    
 Leave Link  401 at Sat Oct  6 02:09:40 2012, MaxMem=  262144000 cpu:       0.3
 (Enter /apps/rhel5/g09-C.01/g09/l502.exe)
 Closed shell SCF:
 Requested convergence on RMS density matrix=1.00D-07 within 400 cycles.
 Requested convergence on MAX density matrix=1.00D-05.
 Requested convergence on             energy=1.00D-05.
 Level shift goal  0.100 maximum shift  0.100.
 No special actions if energy rises.
 Dynamic level shift is on during FON iterations.
 Using DIIS extrapolation, IDIIS=    10.
 Integral symmetry usage will be decided dynamically.
        25487 words used for storage of precomputed grid.
 Keep J ints in memory in canonical form, NReq=4009522.
 IEnd=      203930 IEndB=      203930 NGot=   262144000 MDV=   259188353
 LenX=   259188353 LenY=   259183151
 Symmetry not used in FoFDir.
 MinBra= 0 MaxBra= 2 Meth= 1.
 IRaf=       0 NMat=   1 IRICut=       1 DoRegI=T DoRafI=F ISym2E= 0 JSym2E=0.
 Integral accuracy reduced to 1.0D-05 until final iterations.

 Cycle   1  Pass 0  IDiag  1:
 E= -225.443397686598    
 DIIS: error= 6.73D-03 at cycle   1 NSaved=   1.
 NSaved= 1 IEnMin= 1 EnMin= -225.443397686598     IErMin= 1 ErrMin= 6.73D-03
 ErrMax= 6.73D-03 EMaxC= 1.00D+00 BMatC= 5.35D-03 BMatP= 5.35D-03
 IDIUse=1 WtCom= 1.00D+00 WtEn= 0.00D+00
 Coeff-Com:  0.100D+01
 Coeff:      0.100D+01
 Gap=     0.064 Goal=     0.100 Shift=    0.036
 T=  600. Gap= 0.098 NK=0 IS=    1 IE=   66
          NO(<0.9)=   0  NV(>0.1)=   0  12.00e < EF 0.00e >EF  Err=7.4D-11
 GapD=    0.064 DampG=0.500 DampE=1.000 DampFc=0.5000 IDamp=-1.
 Damping current iteration by 5.00D-01
 RMSDP=1.64D-03 MaxDP=1.40D-02              OVMax= 5.35D-02

 Cycle   2  Pass 0  IDiag  1:
 E= -225.446714313996     Delta-E=       -0.003316627398 Rises=F Damp=T
 DIIS: error= 3.35D-03 at cycle   2 NSaved=   2.
 NSaved= 2 IEnMin= 2 EnMin= -225.446714313996     IErMin= 2 ErrMin= 3.35D-03
 ErrMax= 3.35D-03 EMaxC= 1.00D+00 BMatC= 1.31D-03 BMatP= 5.35D-03
 IDIUse=1 WtCom= 1.00D+00 WtEn= 0.00D+00
 Coeff-Com: -0.495D+00 0.150D+01
 Coeff:     -0.495D+00 0.150D+01
 Gap=     0.057 Goal=     0.100 Shift=    0.043
 T=  490. Gap= 0.100 NK=3 IS=    7 IE=   19
          NO(<0.9)=   0  NV(>0.1)=   0  12.00e < EF 0.00e >EF  Err=0.0D+00
 GapD=    0.057 DampG=0.500 DampE=1.000 DampFc=0.5000 IDamp=-1.
 Damping current iteration by 5.00D-01
 RMSDP=9.47D-04 MaxDP=1.20D-02 DE=-3.32D-03 OVMax= 2.65D-02

 Cycle   3  Pass 0  IDiag  1:
 E= -225.447896768130     Delta-E=       -0.001182454134 Rises=F Damp=T
 DIIS: error= 5.02D-03 at cycle   3 NSaved=   3.
 NSaved= 3 IEnMin= 3 EnMin= -225.447896768130     IErMin= 2 ErrMin= 3.35D-03
 ErrMax= 5.02D-03 EMaxC= 1.00D+00 BMatC= 9.49D-04 BMatP= 1.31D-03
 IDIUse=1 WtCom= 1.00D+00 WtEn= 0.00D+00
 Coeff-Com: -0.580D+00 0.854D+00 0.726D+00
 Coeff:     -0.580D+00 0.854D+00 0.726D+00
 Gap=     0.060 Goal=     0.100 Shift=    0.040
 T=  425. Gap= 0.100 NK=3 IS=    7 IE=   19
          NO(<0.9)=   0  NV(>0.1)=   0  12.00e < EF 0.00e >EF  Err=0.0D+00
 GapD=    0.060 DampG=0.500 DampE=1.000 DampFc=0.5000 IDamp=-1.
 Damping current iteration by 5.00D-01
 RMSDP=5.02D-04 MaxDP=3.91D-03 DE=-1.18D-03 OVMax= 1.76D-02

 Cycle   4  Pass 0  IDiag  1:
 E= -225.449064917367     Delta-E=       -0.001168149237 Rises=F Damp=T
 DIIS: error= 2.56D-03 at cycle   4 NSaved=   4.
 NSaved= 4 IEnMin= 4 EnMin= -225.449064917367     IErMin= 4 ErrMin= 2.56D-03
 ErrMax= 2.56D-03 EMaxC= 1.00D+00 BMatC= 2.22D-04 BMatP= 9.49D-04
 IDIUse=1 WtCom= 1.00D+00 WtEn= 0.00D+00
 Coeff-Com: -0.241D+00 0.311D+00-0.282D+00 0.121D+01
 Coeff:     -0.241D+00 0.311D+00-0.282D+00 0.121D+01
 Gap=     0.060 Goal=     0.100 Shift=    0.040
 T=  231. Gap= 0.100 NK=3 IS=    7 IE=   19
          NO(<0.9)=   0  NV(>0.1)=   0  12.00e < EF 0.00e >EF  Err=0.0D+00
 GapD=    0.060 DampG=0.500 DampE=1.000 DampFc=0.5000 IDamp=-1.
 Damping current iteration by 5.00D-01
 RMSDP=2.39D-04 MaxDP=1.83D-03 DE=-1.17D-03 OVMax= 1.45D-03

 Cycle   5  Pass 0  IDiag  1:
 E= -225.449595459279     Delta-E=       -0.000530541912 Rises=F Damp=T
 DIIS: error= 1.12D-03 at cycle   5 NSaved=   5.
 NSaved= 5 IEnMin= 5 EnMin= -225.449595459279     IErMin= 5 ErrMin= 1.12D-03
 ErrMax= 1.12D-03 EMaxC= 1.00D+00 BMatC= 4.70D-05 BMatP= 2.22D-04
 IDIUse=1 WtCom= 1.00D+00 WtEn= 0.00D+00
 Coeff-Com: -0.607D-01 0.632D-01-0.982D-01-0.245D+00 0.134D+01
 Coeff:     -0.607D-01 0.632D-01-0.982D-01-0.245D+00 0.134D+01
 Gap=     0.060 Goal=     0.100 Shift=    0.040
 T=   94. Gap= 0.100 NK=3 IS=    7 IE=   19
          NO(<0.9)=   0  NV(>0.1)=   0  12.00e < EF 0.00e >EF  Err=0.0D+00
 GapD=    0.060 DampG=0.500 DampE=1.000 DampFc=0.5000 IDamp=-1.
 Damping current iteration by 5.00D-01
 RMSDP=1.20D-04 MaxDP=9.44D-04 DE=-5.31D-04 OVMax= 4.13D-04

 Cycle   6  Pass 0  IDiag  1:
 E= -225.449844728849     Delta-E=       -0.000249269569 Rises=F Damp=T
 DIIS: error= 5.35D-04 at cycle   6 NSaved=   6.
 NSaved= 6 IEnMin= 6 EnMin= -225.449844728849     IErMin= 6 ErrMin= 5.35D-04
 ErrMax= 5.35D-04 EMaxC= 1.00D+00 BMatC= 1.12D-05 BMatP= 4.70D-05
 IDIUse=1 WtCom= 1.00D+00 WtEn= 0.00D+00
 Coeff-Com: -0.216D-02-0.389D-02-0.719D-02-0.619D-01-0.645D+00 0.172D+01
 Coeff:     -0.216D-02-0.389D-02-0.719D-02-0.619D-01-0.645D+00 0.172D+01
 Gap=     0.060 Goal=     0.100 Shift=    0.040
 RMSDP=5.95D-05 MaxDP=4.71D-04 DE=-2.49D-04 OVMax= 1.03D-04

 Cycle   7  Pass 0  IDiag  1:
 E= -225.450087043500     Delta-E=       -0.000242314651 Rises=F Damp=F
 DIIS: error= 3.97D-06 at cycle   7 NSaved=   7.
 NSaved= 7 IEnMin= 7 EnMin= -225.450087043500     IErMin= 7 ErrMin= 3.97D-06
 ErrMax= 3.97D-06 EMaxC= 1.00D+00 BMatC= 6.06D-10 BMatP= 1.12D-05
 IDIUse=1 WtCom= 1.00D+00 WtEn= 0.00D+00
 Coeff-Com: -0.151D-04-0.515D-03-0.206D-02-0.109D-01-0.572D-01 0.183D+00
 Coeff-Com:  0.888D+00
 Coeff:     -0.151D-04-0.515D-03-0.206D-02-0.109D-01-0.572D-01 0.183D+00
 Coeff:      0.888D+00
 Gap=     0.060 Goal=     0.100 Shift=    0.040
 RMSDP=3.39D-07 MaxDP=3.78D-06 DE=-2.42D-04 OVMax= 4.66D-06

 Initial convergence to 1.0D-05 achieved.  Increase integral accuracy.
 Cycle   8  Pass 1  IDiag  1:
 E= -225.450103258878     Delta-E=       -0.000016215378 Rises=F Damp=F
 DIIS: error= 1.16D-05 at cycle   1 NSaved=   1.
 NSaved= 1 IEnMin= 1 EnMin= -225.450103258878     IErMin= 1 ErrMin= 1.16D-05
 ErrMax= 1.16D-05 EMaxC= 1.00D+00 BMatC= 1.79D-08 BMatP= 1.79D-08
 IDIUse=1 WtCom= 1.00D+00 WtEn= 0.00D+00
 Coeff-Com:  0.100D+01
 Coeff:      0.100D+01
 Gap=     0.060 Goal=     0.100 Shift=    0.040
 RMSDP=3.39D-07 MaxDP=3.78D-06 DE=-1.62D-05 OVMax= 6.79D-05

 Cycle   9  Pass 1  IDiag  1:
 E= -225.450103283647     Delta-E=       -0.000000024769 Rises=F Damp=F
 DIIS: error= 5.77D-06 at cycle   2 NSaved=   2.
 NSaved= 2 IEnMin= 2 EnMin= -225.450103283647     IErMin= 2 ErrMin= 5.77D-06
 ErrMax= 5.77D-06 EMaxC= 1.00D+00 BMatC= 1.16D-09 BMatP= 1.79D-08
 IDIUse=1 WtCom= 1.00D+00 WtEn= 0.00D+00
 Coeff-Com:  0.659D-01 0.934D+00
 Coeff:      0.659D-01 0.934D+00
 Gap=     0.060 Goal=     0.100 Shift=    0.040
 RMSDP=1.47D-06 MaxDP=1.48D-05 DE=-2.48D-08 OVMax= 3.39D-05

 Cycle  10  Pass 1  IDiag  1:
 E= -225.450103280025     Delta-E=        0.000000003622 Rises=F Damp=F
 DIIS: error= 1.47D-05 at cycle   3 NSaved=   3.
 NSaved= 3 IEnMin= 2 EnMin= -225.450103283647     IErMin= 2 ErrMin= 5.77D-06
 ErrMax= 1.47D-05 EMaxC= 1.00D+00 BMatC= 6.94D-09 BMatP= 1.16D-09
 IDIUse=1 WtCom= 1.00D+00 WtEn= 0.00D+00
 Coeff-Com: -0.159D-01 0.724D+00 0.292D+00
 Coeff:     -0.159D-01 0.724D+00 0.292D+00
 Gap=     0.060 Goal=     0.100 Shift=    0.040
 RMSDP=5.01D-07 MaxDP=7.16D-06 DE= 3.62D-09 OVMax= 2.33D-05

 Cycle  11  Pass 1  IDiag  1:
 E= -225.450103284394     Delta-E=       -0.000000004369 Rises=F Damp=F
 DIIS: error= 5.67D-07 at cycle   4 NSaved=   4.
 NSaved= 4 IEnMin= 4 EnMin= -225.450103284394     IErMin= 4 ErrMin= 5.67D-07
 ErrMax= 5.67D-07 EMaxC= 1.00D+00 BMatC= 9.29D-12 BMatP= 1.16D-09
 IDIUse=1 WtCom= 1.00D+00 WtEn= 0.00D+00
 Coeff-Com: -0.502D-02 0.124D+00 0.242D-01 0.857D+00
 Coeff:     -0.502D-02 0.124D+00 0.242D-01 0.857D+00
 Gap=     0.060 Goal=     0.100 Shift=    0.040
 RMSDP=5.65D-08 MaxDP=5.90D-07 DE=-4.37D-09 OVMax= 1.90D-06

 SCF Done:  E(RPW91-PW91) =  -225.450103284     A.U. after   11 cycles
             Convg  =    0.5647D-07             -V/T =  2.0014
 KE= 2.251446097680D+02 PE=-6.712643877808D+02 EE= 1.514949722328D+02
 Leave Link  502 at Sat Oct  6 02:09:41 2012, MaxMem=  262144000 cpu:       1.1
 (Enter /apps/rhel5/g09-C.01/g09/l701.exe)
 Compute integral first derivatives.
 ... and contract with generalized density number  0.
 Leave Link  701 at Sat Oct  6 02:09:41 2012, MaxMem=  262144000 cpu:       0.2
 (Enter /apps/rhel5/g09-C.01/g09/l702.exe)
 L702 exits ... SP integral derivatives will be done elsewhere.
 Leave Link  702 at Sat Oct  6 02:09:41 2012, MaxMem=  262144000 cpu:       0.1
 (Enter /apps/rhel5/g09-C.01/g09/l703.exe)
 Compute integral first derivatives, UseDBF=F ICtDFT=           0.
 Integral derivatives from FoFDir, PRISM(SPDF).
 Calling FoFJK, ICntrl=      2527 FMM=F ISym2X=1 I1Cent= 0 IOpClX= 0 NMat=1 NMatS=1 NMatT=0.
 FoFCou: FMM=F IPFlag=           0 FMFlag=      100000 FMFlg1=         800
         NFxFlg=           0 DoJE=F BraDBF=F KetDBF=F FulRan=T
         Omega=  0.000000  0.000000  1.000000  0.000000  0.000000 ICntrl=    2527 IOpCl=  0
         NMat0=    1 NMatS0=    1 NMatT0=    0 NMatD0=    1 NMtDS0=    0 NMtDT0=    0
         I1Cent=           0 NGrid=           0.
 Petite list used in FoFCou.
 Leave Link  703 at Sat Oct  6 02:09:42 2012, MaxMem=  262144000 cpu:       0.6
 (Enter /apps/rhel5/g09-C.01/g09/l716.exe)
 Dipole        = 2.37928264D-17 0.00000000D+00 2.27907008D-01
 ***** Axes restored to original set *****
 -------------------------------------------------------------------
 Center     Atomic                   Forces (Hartrees/Bohr)
 Number     Number              X              Y              Z
 -------------------------------------------------------------------
      1        8          -0.034692887    0.000000000   -0.021259829
      2        8           0.013664023    0.000000000    0.016639078
      3        8           0.021028864    0.000000000    0.004620750
 -------------------------------------------------------------------
 Cartesian Forces:  Max     0.034692887 RMS     0.016940109
 Leave Link  716 at Sat Oct  6 02:09:42 2012, MaxMem=  262144000 cpu:       0.1
 (Enter /apps/rhel5/g09-C.01/g09/l103.exe)

 GradGradGradGradGradGradGradGradGradGradGradGradGradGradGradGradGradGrad
 Berny optimization.
 Using GDIIS optimizer.
 Internal  Forces:  Max     0.034476180 RMS     0.023769698
 Search for a local minimum.
 Step number   2 out of a maximum of   20
 All quantities printed in internal units (Hartrees-Bohrs-Radians)
 Swaping is turned off.
 Update second derivatives using D2CorX and points    1    2
 DE= -5.12D-03 DEPred=-6.21D-03 R= 8.24D-01
 SS=  1.41D+00  RLast= 1.45D-01 DXNew= 5.0454D-01 4.3354D-01
 Trust test= 8.24D-01 RLast= 1.45D-01 DXMaxT set to 4.34D-01
 The second derivative matrix:
                          R1        R2        A1
           R1           0.77883
           R2          -0.17500   0.77883
           A1           0.08837   0.08837   0.46155
 ITU=  1  0
     Eigenvalues ---    0.38888   0.67649   0.95383
 DIIS coeff's:      0.90643      0.09357
 Cosine:  1.000 >  0.970
 Length:  1.000
 GDIIS step was calculated using  2 of the last  2 vectors.
 Iteration  1 RMS(Cart)=  0.05444607 RMS(Int)=  0.00207752
 Iteration  2 RMS(Cart)=  0.00254244 RMS(Int)=  0.00000142
 Iteration  3 RMS(Cart)=  0.00000115 RMS(Int)=  0.00000000
 Iteration  4 RMS(Cart)=  0.00000000 RMS(Int)=  0.00000000
 ClnCor:  largest displacement from symmetrization is 1.42D-14 for atom     3.
 Variable       Old X    -DE/DX   Delta X   Delta X   Delta X     New X
                                  (DIIS)     (GDIIS)  (Total)
    R1        2.37699   0.01591  -0.00669   0.04619   0.03950   2.41649
    R2        2.37699   0.01591  -0.00669   0.04619   0.03950   2.41649
    A1        2.14525  -0.03448  -0.00966  -0.08017  -0.08982   2.05543
         Item               Value     Threshold  Converged?
 Maximum Force            0.034476     0.000450     NO 
 RMS     Force            0.023770     0.000300     NO 
 Maximum Displacement     0.064240     0.001800     NO 
 RMS     Displacement     0.055553     0.001200     NO 
 Predicted change in Energy=-2.176880D-03
 GradGradGradGradGradGradGradGradGradGradGradGradGradGradGradGradGradGrad

 Leave Link  103 at Sat Oct  6 02:09:42 2012, MaxMem=  262144000 cpu:       0.0
 (Enter /apps/rhel5/g09-C.01/g09/l202.exe)
                          Input orientation:                          
 ---------------------------------------------------------------------
 Center     Atomic      Atomic             Coordinates (Angstroms)
 Number     Number       Type             X           Y           Z
 ---------------------------------------------------------------------
      1          8           0       -0.013291    0.000000   -0.008145
      2          8           0       -0.021852    0.000000    1.270577
      3          8           0        1.122171    0.000000   -0.596300
 ---------------------------------------------------------------------
                    Distance matrix (angstroms):
                    1          2          3
     1  O    0.000000
     2  O    1.278750   0.000000
     3  O    1.278750   2.189525   0.000000
 Stoichiometry    O3
 Framework group  C2V[C2(O),SGV(O2)]
 Deg. of freedom     2
 Full point group                 C2V     NOp   4
 RotChk:  IX=0 Diff= 4.71D-15
 Largest Abelian subgroup         C2V     NOp   4
 Largest concise Abelian subgroup C2      NOp   2
                         Standard orientation:                         
 ---------------------------------------------------------------------
 Center     Atomic      Atomic             Coordinates (Angstroms)
 Number     Number       Type             X           Y           Z
 ---------------------------------------------------------------------
      1          8           0        0.000000    0.000000    0.440553
      2          8           0        0.000000    1.094763   -0.220277
      3          8           0        0.000000   -1.094763   -0.220277
 ---------------------------------------------------------------------
 Rotational constants (GHZ):    108.5293032     13.1815164     11.7539328
 Leave Link  202 at Sat Oct  6 02:09:42 2012, MaxMem=  262144000 cpu:       0.0
 (Enter /apps/rhel5/g09-C.01/g09/l301.exe)
 Standard basis: 6-311++G(d,p) (5D, 7F)
 Ernie: Thresh=  0.10000D-02 Tol=  0.10000D-05 Strict=F.
 There are    27 symmetry adapted basis functions of A1  symmetry.
 There are     7 symmetry adapted basis functions of A2  symmetry.
 There are    11 symmetry adapted basis functions of B1  symmetry.
 There are    21 symmetry adapted basis functions of B2  symmetry.
 Integral buffers will be    131072 words long.
 Raffenetti 2 integral format.
 Two-electron integral symmetry is turned on.
    66 basis functions,   108 primitive gaussians,    69 cartesian basis functions
    12 alpha electrons       12 beta electrons
       nuclear repulsion energy        68.4373439392 Hartrees.
 IExCor=  608 DFT=T Ex=PW91 Corr=PW91 ExCW=0 ScaHFX=  0.000000
 ScaDFX=  1.000000  1.000000  1.000000  1.000000 ScalE2=  1.000000  1.000000
 IRadAn=      0 IRanWt=     -1 IRanGd=            0 ICorTp=0
 NAtoms=    3 NActive=    3 NUniq=    2 SFac= 2.25D+00 NAtFMM=   60 NAOKFM=F Big=F
 Leave Link  301 at Sat Oct  6 02:09:42 2012, MaxMem=  262144000 cpu:       0.1
 (Enter /apps/rhel5/g09-C.01/g09/l302.exe)
 NPDir=0 NMtPBC=     1 NCelOv=     1 NCel=       1 NClECP=     1 NCelD=      1
         NCelK=      1 NCelE2=     1 NClLst=     1 CellRange=     0.0.
 One-electron integrals computed using PRISM.
 One-electron integral symmetry used in STVInt
 NBasis=    66 RedAO= T  NBF=    27     7    11    21
 NBsUse=    66 1.00D-06 NBFU=    27     7    11    21
 Precomputing XC quadrature grid using
 IXCGrd= 2 IRadAn=           0 IRanWt=          -1 IRanGd=           0 AccXCQ= 0.00D+00.
 NRdTot=     191 NPtTot=       24138 NUsed=       25527 NTot=       25559
 NSgBfM=    69    69    69    69    69 NAtAll=     3     3.
 Leave Link  302 at Sat Oct  6 02:09:42 2012, MaxMem=  262144000 cpu:       0.2
 (Enter /apps/rhel5/g09-C.01/g09/l303.exe)
 DipDrv:  MaxL=1.
 Leave Link  303 at Sat Oct  6 02:09:43 2012, MaxMem=  262144000 cpu:       0.0
 (Enter /apps/rhel5/g09-C.01/g09/l401.exe)
 Initial guess read from the read-write file.
 B after Tr=     0.000000    0.000000    0.000000
         Rot=    1.000000    0.000000    0.000000    0.000000 Ang=   0.00 deg.
 Guess basis will be translated and rotated to current coordinates.
 Initial guess orbital symmetries:
       Occupied  (A1) (B2) (A1) (A1) (B2) (A1) (B1) (B2) (A1) (A2)
                 (B2) (A1)
       Virtual   (B1) (A1) (A1) (B2) (B1) (A1) (B2) (A1) (A2) (B2)
                 (A1) (B1) (B2) (A1) (B2) (B1) (A1) (A1) (B2) (B2)
                 (A2) (A1) (B1) (B2) (A1) (A1) (B2) (A2) (A1) (B1)
                 (B2) (A1) (A2) (B1) (B2) (A1) (B2) (B1) (A2) (A1)
                 (B2) (A1) (B1) (A1) (B2) (A2) (B2) (B1) (A1) (A1)
                 (B2) (A1) (A1) (B2)
 The electronic state of the initial guess is 1-A1.
 Generating alternative initial guess.
 Harris functional with IExCor=  608 diagonalized for initial guess.
 ExpMin= 8.45D-02 ExpMax= 8.59D+03 ExpMxC= 1.30D+03 IAcc=2 IRadAn=         4 AccDes= 0.00D+00
 HarFok:  IExCor=  608 AccDes= 0.00D+00 IRadAn=         4 IDoV= 1
 ScaDFX=  1.000000  1.000000  1.000000  1.000000
 FoFCou: FMM=F IPFlag=           0 FMFlag=      100000 FMFlg1=           0
         NFxFlg=           0 DoJE=T BraDBF=F KetDBF=T FulRan=T
         Omega=  0.000000  0.000000  1.000000  0.000000  0.000000 ICntrl=     500 IOpCl=  0
         NMat0=    1 NMatS0=    1 NMatT0=    0 NMatD0=    1 NMtDS0=    0 NMtDT0=    0
         I1Cent=           4 NGrid=           0.
 Petite list used in FoFCou.
 Harris En= -225.485830322179    
 Leave Link  401 at Sat Oct  6 02:09:43 2012, MaxMem=  262144000 cpu:       0.3
 (Enter /apps/rhel5/g09-C.01/g09/l502.exe)
 Closed shell SCF:
 Requested convergence on RMS density matrix=1.00D-07 within 400 cycles.
 Requested convergence on MAX density matrix=1.00D-05.
 Requested convergence on             energy=1.00D-05.
 Level shift goal  0.100 maximum shift  0.100.
 No special actions if energy rises.
 Dynamic level shift is on during FON iterations.
 Using DIIS extrapolation, IDIIS=    10.
 Integral symmetry usage will be decided dynamically.
        25487 words used for storage of precomputed grid.
 Keep J ints in memory in canonical form, NReq=4009522.
 IEnd=      203930 IEndB=      203930 NGot=   262144000 MDV=   259188353
 LenX=   259188353 LenY=   259183151
 Symmetry not used in FoFDir.
 MinBra= 0 MaxBra= 2 Meth= 1.
 IRaf=       0 NMat=   1 IRICut=       1 DoRegI=T DoRafI=F ISym2E= 0 JSym2E=0.
 Integral accuracy reduced to 1.0D-05 until final iterations.

 Cycle   1  Pass 0  IDiag  1:
 E= -225.448405117120    
 DIIS: error= 5.61D-03 at cycle   1 NSaved=   1.
 NSaved= 1 IEnMin= 1 EnMin= -225.448405117120     IErMin= 1 ErrMin= 5.61D-03
 ErrMax= 5.61D-03 EMaxC= 1.00D+00 BMatC= 2.34D-03 BMatP= 2.34D-03
 IDIUse=1 WtCom= 1.00D+00 WtEn= 0.00D+00
 Coeff-Com:  0.100D+01
 Coeff:      0.100D+01
 Gap=     0.063 Goal=     0.100 Shift=    0.037
 T=  490. Gap= 0.099 NK=0 IS=    1 IE=   66
          NO(<0.9)=   0  NV(>0.1)=   0  12.00e < EF 0.00e >EF  Err=0.0D+00
 GapD=    0.063 DampG=0.500 DampE=1.000 DampFc=0.5000 IDamp=-1.
 Damping current iteration by 5.00D-01
 RMSDP=1.18D-03 MaxDP=9.02D-03              OVMax= 3.10D-02

 Cycle   2  Pass 0  IDiag  1:
 E= -225.450207837611     Delta-E=       -0.001802720491 Rises=F Damp=T
 DIIS: error= 2.71D-03 at cycle   2 NSaved=   2.
 NSaved= 2 IEnMin= 2 EnMin= -225.450207837611     IErMin= 2 ErrMin= 2.71D-03
 ErrMax= 2.71D-03 EMaxC= 1.00D+00 BMatC= 6.04D-04 BMatP= 2.34D-03
 IDIUse=1 WtCom= 1.00D+00 WtEn= 0.00D+00
 Coeff-Com: -0.888D+00 0.189D+01
 Coeff:     -0.888D+00 0.189D+01
 Gap=     0.063 Goal=     0.100 Shift=    0.037
 T=  376. Gap= 0.100 NK=3 IS=    7 IE=   19
          NO(<0.9)=   0  NV(>0.1)=   0  12.00e < EF 0.00e >EF  Err=0.0D+00
 GapD=    0.063 DampG=0.500 DampE=1.000 DampFc=0.5000 IDamp=-1.
 Damping current iteration by 5.00D-01
 RMSDP=6.28D-04 MaxDP=4.48D-03 DE=-1.80D-03 OVMax= 4.17D-03

 Cycle   3  Pass 0  IDiag  1:
 E= -225.451062570756     Delta-E=       -0.000854733145 Rises=F Damp=T
 DIIS: error= 1.33D-03 at cycle   3 NSaved=   3.
 NSaved= 3 IEnMin= 3 EnMin= -225.451062570756     IErMin= 3 ErrMin= 1.33D-03
 ErrMax= 1.33D-03 EMaxC= 1.00D+00 BMatC= 1.59D-04 BMatP= 6.04D-04
 IDIUse=1 WtCom= 1.00D+00 WtEn= 0.00D+00
 Coeff-Com: -0.363D+00 0.559D-01 0.131D+01
 Coeff:     -0.363D+00 0.559D-01 0.131D+01
 Gap=     0.063 Goal=     0.100 Shift=    0.037
 T=  156. Gap= 0.100 NK=3 IS=    7 IE=   19
          NO(<0.9)=   0  NV(>0.1)=   0  12.00e < EF 0.00e >EF  Err=0.0D+00
 GapD=    0.063 DampG=0.500 DampE=1.000 DampFc=0.5000 IDamp=-1.
 Damping current iteration by 5.00D-01
 RMSDP=3.08D-04 MaxDP=2.04D-03 DE=-8.55D-04 OVMax= 1.62D-03

 Cycle   4  Pass 0  IDiag  1:
 E= -225.451496326534     Delta-E=       -0.000433755778 Rises=F Damp=T
 DIIS: error= 7.21D-04 at cycle   4 NSaved=   4.
 NSaved= 4 IEnMin= 4 EnMin= -225.451496326534     IErMin= 4 ErrMin= 7.21D-04
 ErrMax= 7.21D-04 EMaxC= 1.00D+00 BMatC= 3.88D-05 BMatP= 1.59D-04
 IDIUse=1 WtCom= 1.00D+00 WtEn= 0.00D+00
 Coeff-Com: -0.150D+00-0.376D-01 0.128D+00 0.106D+01
 Coeff:     -0.150D+00-0.376D-01 0.128D+00 0.106D+01
 Gap=     0.063 Goal=     0.100 Shift=    0.037
 RMSDP=1.54D-04 MaxDP=1.08D-03 DE=-4.34D-04 OVMax= 1.04D-03

 Cycle   5  Pass 0  IDiag  1:
 E= -225.451923184292     Delta-E=       -0.000426857758 Rises=F Damp=F
 DIIS: error= 3.37D-04 at cycle   5 NSaved=   5.
 NSaved= 5 IEnMin= 5 EnMin= -225.451923184292     IErMin= 5 ErrMin= 3.37D-04
 ErrMax= 3.37D-04 EMaxC= 1.00D+00 BMatC= 3.03D-06 BMatP= 3.88D-05
 IDIUse=1 WtCom= 1.00D+00 WtEn= 0.00D+00
 Coeff-Com: -0.735D-01-0.364D-01-0.585D-01 0.840D+00 0.329D+00
 Coeff:     -0.735D-01-0.364D-01-0.585D-01 0.840D+00 0.329D+00
 Gap=     0.063 Goal=     0.100 Shift=    0.037
 RMSDP=1.12D-05 MaxDP=1.91D-04 DE=-4.27D-04 OVMax= 4.99D-04

 Cycle   6  Pass 0  IDiag  1:
 E= -225.451925140837     Delta-E=       -0.000001956545 Rises=F Damp=F
 DIIS: error= 1.47D-05 at cycle   6 NSaved=   6.
 NSaved= 6 IEnMin= 6 EnMin= -225.451925140837     IErMin= 6 ErrMin= 1.47D-05
 ErrMax= 1.47D-05 EMaxC= 1.00D+00 BMatC= 1.36D-08 BMatP= 3.03D-06
 IDIUse=1 WtCom= 1.00D+00 WtEn= 0.00D+00
 Coeff-Com: -0.544D-02-0.136D-01-0.503D-01 0.197D+00 0.733D-01 0.799D+00
 Coeff:     -0.544D-02-0.136D-01-0.503D-01 0.197D+00 0.733D-01 0.799D+00
 Gap=     0.063 Goal=     0.100 Shift=    0.037
 RMSDP=2.02D-06 MaxDP=2.05D-05 DE=-1.96D-06 OVMax= 4.24D-05

 Initial convergence to 1.0D-05 achieved.  Increase integral accuracy.
 Cycle   7  Pass 1  IDiag  1:
 E= -225.451931216828     Delta-E=       -0.000006075991 Rises=F Damp=F
 DIIS: error= 1.54D-05 at cycle   1 NSaved=   1.
 NSaved= 1 IEnMin= 1 EnMin= -225.451931216828     IErMin= 1 ErrMin= 1.54D-05
 ErrMax= 1.54D-05 EMaxC= 1.00D+00 BMatC= 2.57D-08 BMatP= 2.57D-08
 IDIUse=1 WtCom= 1.00D+00 WtEn= 0.00D+00
 Coeff-Com:  0.100D+01
 Coeff:      0.100D+01
 Gap=     0.063 Goal=     0.100 Shift=    0.037
 RMSDP=2.02D-06 MaxDP=2.05D-05 DE=-6.08D-06 OVMax= 9.03D-05

 Cycle   8  Pass 1  IDiag  1:
 E= -225.451931248100     Delta-E=       -0.000000031272 Rises=F Damp=F
 DIIS: error= 1.56D-05 at cycle   2 NSaved=   2.
 NSaved= 2 IEnMin= 2 EnMin= -225.451931248100     IErMin= 1 ErrMin= 1.54D-05
 ErrMax= 1.56D-05 EMaxC= 1.00D+00 BMatC= 8.10D-09 BMatP= 2.57D-08
 IDIUse=1 WtCom= 1.00D+00 WtEn= 0.00D+00
 Coeff-Com:  0.275D+00 0.725D+00
 Coeff:      0.275D+00 0.725D+00
 Gap=     0.063 Goal=     0.100 Shift=    0.037
 RMSDP=1.80D-06 MaxDP=2.22D-05 DE=-3.13D-08 OVMax= 7.69D-05

 Cycle   9  Pass 1  IDiag  1:
 E= -225.451931235241     Delta-E=        0.000000012860 Rises=F Damp=F
 DIIS: error= 3.00D-05 at cycle   3 NSaved=   3.
 NSaved= 3 IEnMin= 2 EnMin= -225.451931248100     IErMin= 1 ErrMin= 1.54D-05
 ErrMax= 3.00D-05 EMaxC= 1.00D+00 BMatC= 2.82D-08 BMatP= 8.10D-09
 IDIUse=1 WtCom= 1.00D+00 WtEn= 0.00D+00
 Coeff-Com: -0.441D-02 0.655D+00 0.350D+00
 Coeff:     -0.441D-02 0.655D+00 0.350D+00
 Gap=     0.063 Goal=     0.100 Shift=    0.037
 RMSDP=9.61D-07 MaxDP=1.42D-05 DE= 1.29D-08 OVMax= 4.64D-05

 Cycle  10  Pass 1  IDiag  1:
 E= -225.451931253223     Delta-E=       -0.000000017983 Rises=F Damp=F
 DIIS: error= 1.62D-06 at cycle   4 NSaved=   4.
 NSaved= 4 IEnMin= 4 EnMin= -225.451931253223     IErMin= 4 ErrMin= 1.62D-06
 ErrMax= 1.62D-06 EMaxC= 1.00D+00 BMatC= 8.69D-11 BMatP= 8.10D-09
 IDIUse=1 WtCom= 1.00D+00 WtEn= 0.00D+00
 Coeff-Com: -0.536D-02 0.162D+00 0.468D-01 0.796D+00
 Coeff:     -0.536D-02 0.162D+00 0.468D-01 0.796D+00
 Gap=     0.063 Goal=     0.100 Shift=    0.037
 RMSDP=1.11D-07 MaxDP=1.23D-06 DE=-1.80D-08 OVMax= 4.75D-06

 Cycle  11  Pass 1  IDiag  1:
 E= -225.451931253289     Delta-E=       -0.000000000066 Rises=F Damp=F
 DIIS: error= 2.09D-07 at cycle   5 NSaved=   5.
 NSaved= 5 IEnMin= 5 EnMin= -225.451931253289     IErMin= 5 ErrMin= 2.09D-07
 ErrMax= 2.09D-07 EMaxC= 1.00D+00 BMatC= 3.55D-12 BMatP= 8.69D-11
 IDIUse=1 WtCom= 1.00D+00 WtEn= 0.00D+00
 Coeff-Com: -0.192D-02 0.353D-01 0.148D-01 0.223D+00 0.729D+00
 Coeff:     -0.192D-02 0.353D-01 0.148D-01 0.223D+00 0.729D+00
 Gap=     0.063 Goal=     0.100 Shift=    0.037
 RMSDP=1.67D-08 MaxDP=2.41D-07 DE=-6.61D-11 OVMax= 2.63D-07

 SCF Done:  E(RPW91-PW91) =  -225.451931253     A.U. after   11 cycles
             Convg  =    0.1671D-07             -V/T =  2.0017
 KE= 2.250608695816D+02 PE=-6.698082866086D+02 EE= 1.508581418345D+02
 Leave Link  502 at Sat Oct  6 02:09:44 2012, MaxMem=  262144000 cpu:       1.2
 (Enter /apps/rhel5/g09-C.01/g09/l701.exe)
 Compute integral first derivatives.
 ... and contract with generalized density number  0.
 Leave Link  701 at Sat Oct  6 02:09:44 2012, MaxMem=  262144000 cpu:       0.2
 (Enter /apps/rhel5/g09-C.01/g09/l702.exe)
 L702 exits ... SP integral derivatives will be done elsewhere.
 Leave Link  702 at Sat Oct  6 02:09:45 2012, MaxMem=  262144000 cpu:       0.1
 (Enter /apps/rhel5/g09-C.01/g09/l703.exe)
 Compute integral first derivatives, UseDBF=F ICtDFT=           0.
 Integral derivatives from FoFDir, PRISM(SPDF).
 Calling FoFJK, ICntrl=      2527 FMM=F ISym2X=1 I1Cent= 0 IOpClX= 0 NMat=1 NMatS=1 NMatT=0.
 FoFCou: FMM=F IPFlag=           0 FMFlag=      100000 FMFlg1=         800
         NFxFlg=           0 DoJE=F BraDBF=F KetDBF=F FulRan=T
         Omega=  0.000000  0.000000  1.000000  0.000000  0.000000 ICntrl=    2527 IOpCl=  0
         NMat0=    1 NMatS0=    1 NMatT0=    0 NMatD0=    1 NMtDS0=    0 NMtDT0=    0
         I1Cent=           0 NGrid=           0.
 Petite list used in FoFCou.
 Leave Link  703 at Sat Oct  6 02:09:45 2012, MaxMem=  262144000 cpu:       0.6
 (Enter /apps/rhel5/g09-C.01/g09/l716.exe)
 Dipole        = 2.47998025D-17 0.00000000D+00 2.56086785D-01
 ***** Axes restored to original set *****
 -------------------------------------------------------------------
 Center     Atomic                   Forces (Hartrees/Bohr)
 Number     Number              X              Y              Z
 -------------------------------------------------------------------
      1        8           0.005256859    0.000000000    0.003221407
      2        8          -0.002093980    0.000000000   -0.002482845
      3        8          -0.003162879    0.000000000   -0.000738562
 -------------------------------------------------------------------
 Cartesian Forces:  Max     0.005256859 RMS     0.002562780
 Leave Link  716 at Sat Oct  6 02:09:45 2012, MaxMem=  262144000 cpu:       0.1
 (Enter /apps/rhel5/g09-C.01/g09/l103.exe)

 GradGradGradGradGradGradGradGradGradGradGradGradGradGradGradGradGradGrad
 Berny optimization.
 Using GDIIS optimizer.
 Internal  Forces:  Max     0.005100133 RMS     0.003568427
 Search for a local minimum.
 Step number   3 out of a maximum of   20
 All quantities printed in internal units (Hartrees-Bohrs-Radians)
 Swaping is turned off.
 Update second derivatives using D2CorX and points    1    2    3
 DE= -1.83D-03 DEPred=-2.18D-03 R= 8.40D-01
 SS=  1.41D+00  RLast= 1.06D-01 DXNew= 7.2912D-01 3.1733D-01
 Trust test= 8.40D-01 RLast= 1.06D-01 DXMaxT set to 4.34D-01
 The second derivative matrix:
                          R1        R2        A1
           R1           0.78156
           R2          -0.17227   0.78156
           A1           0.06329   0.06329   0.49627
 ITU=  1  1  0
     Eigenvalues ---    0.44692   0.65863   0.95383
 Cut down GDIIS permanently because of the redundancy. E 1
 DIIS coeff's:      0.86955      0.13045
 Cosine:  1.000 >  0.970
 Length:  1.000
 GDIIS step was calculated using  2 of the last  3 vectors.
 Iteration  1 RMS(Cart)=  0.00730092 RMS(Int)=  0.00003640
 Iteration  2 RMS(Cart)=  0.00004144 RMS(Int)=  0.00000000
 Iteration  3 RMS(Cart)=  0.00000000 RMS(Int)=  0.00000000
 ClnCor:  largest displacement from symmetrization is 1.07D-14 for atom     3.
 Variable       Old X    -DE/DX   Delta X   Delta X   Delta X     New X
                                  (DIIS)     (GDIIS)  (Total)
    R1        2.41649  -0.00247  -0.00515  -0.00011  -0.00526   2.41123
    R2        2.41649  -0.00247  -0.00515  -0.00011  -0.00526   2.41123
    A1        2.05543   0.00510   0.01172  -0.00010   0.01162   2.06704
         Item               Value     Threshold  Converged?
 Maximum Force            0.005100     0.000450     NO 
 RMS     Force            0.003568     0.000300     NO 
 Maximum Displacement     0.008373     0.001800     NO 
 RMS     Displacement     0.007286     0.001200     NO 
 Predicted change in Energy=-4.261038D-05
 GradGradGradGradGradGradGradGradGradGradGradGradGradGradGradGradGradGrad

 Leave Link  103 at Sat Oct  6 02:09:45 2012, MaxMem=  262144000 cpu:       0.0
 (Enter /apps/rhel5/g09-C.01/g09/l202.exe)
                          Input orientation:                          
 ---------------------------------------------------------------------
 Center     Atomic      Atomic             Coordinates (Angstroms)
 Number     Number       Type             X           Y           Z
 ---------------------------------------------------------------------
      1          8           0       -0.008860    0.000000   -0.005429
      2          8           0       -0.024815    0.000000    1.270438
      3          8           0        1.120703    0.000000   -0.598877
 ---------------------------------------------------------------------
                    Distance matrix (angstroms):
                    1          2          3
     1  O    0.000000
     2  O    1.275967   0.000000
     3  O    1.275967   2.192384   0.000000
 Stoichiometry    O3
 Framework group  C2V[C2(O),SGV(O2)]
 Deg. of freedom     2
 Full point group                 C2V     NOp   4
 RotChk:  IX=0 Diff= 4.47D-15
 Largest Abelian subgroup         C2V     NOp   4
 Largest concise Abelian subgroup C2      NOp   2
                         Standard orientation:                         
 ---------------------------------------------------------------------
 Center     Atomic      Atomic             Coordinates (Angstroms)
 Number     Number       Type             X           Y           Z
 ---------------------------------------------------------------------
      1          8           0        0.000000    0.000000    0.435357
      2          8           0        0.000000    1.096192   -0.217678
      3          8           0        0.000000   -1.096192   -0.217678
 ---------------------------------------------------------------------
 Rotational constants (GHZ):    111.1357149     13.1471567     11.7563960
 Leave Link  202 at Sat Oct  6 02:09:45 2012, MaxMem=  262144000 cpu:       0.0
 (Enter /apps/rhel5/g09-C.01/g09/l301.exe)
 Standard basis: 6-311++G(d,p) (5D, 7F)
 Ernie: Thresh=  0.10000D-02 Tol=  0.10000D-05 Strict=F.
 There are    27 symmetry adapted basis functions of A1  symmetry.
 There are     7 symmetry adapted basis functions of A2  symmetry.
 There are    11 symmetry adapted basis functions of B1  symmetry.
 There are    21 symmetry adapted basis functions of B2  symmetry.
 Integral buffers will be    131072 words long.
 Raffenetti 2 integral format.
 Two-electron integral symmetry is turned on.
    66 basis functions,   108 primitive gaussians,    69 cartesian basis functions
    12 alpha electrons       12 beta electrons
       nuclear repulsion energy        68.5326954683 Hartrees.
 IExCor=  608 DFT=T Ex=PW91 Corr=PW91 ExCW=0 ScaHFX=  0.000000
 ScaDFX=  1.000000  1.000000  1.000000  1.000000 ScalE2=  1.000000  1.000000
 IRadAn=      0 IRanWt=     -1 IRanGd=            0 ICorTp=0
 NAtoms=    3 NActive=    3 NUniq=    2 SFac= 2.25D+00 NAtFMM=   60 NAOKFM=F Big=F
 Leave Link  301 at Sat Oct  6 02:09:46 2012, MaxMem=  262144000 cpu:       0.1
 (Enter /apps/rhel5/g09-C.01/g09/l302.exe)
 NPDir=0 NMtPBC=     1 NCelOv=     1 NCel=       1 NClECP=     1 NCelD=      1
         NCelK=      1 NCelE2=     1 NClLst=     1 CellRange=     0.0.
 One-electron integrals computed using PRISM.
 One-electron integral symmetry used in STVInt
 NBasis=    66 RedAO= T  NBF=    27     7    11    21
 NBsUse=    66 1.00D-06 NBFU=    27     7    11    21
 Precomputing XC quadrature grid using
 IXCGrd= 2 IRadAn=           0 IRanWt=          -1 IRanGd=           0 AccXCQ= 0.00D+00.
 NRdTot=     191 NPtTot=       24138 NUsed=       25527 NTot=       25559
 NSgBfM=    69    69    69    69    69 NAtAll=     3     3.
 Leave Link  302 at Sat Oct  6 02:09:46 2012, MaxMem=  262144000 cpu:       0.2
 (Enter /apps/rhel5/g09-C.01/g09/l303.exe)
 DipDrv:  MaxL=1.
 Leave Link  303 at Sat Oct  6 02:09:46 2012, MaxMem=  262144000 cpu:       0.0
 (Enter /apps/rhel5/g09-C.01/g09/l401.exe)
 Initial guess read from the read-write file.
 B after Tr=     0.000000    0.000000    0.000000
         Rot=    1.000000    0.000000    0.000000    0.000000 Ang=   0.00 deg.
 Guess basis will be translated and rotated to current coordinates.
 Initial guess orbital symmetries:
       Occupied  (A1) (B2) (A1) (A1) (B2) (A1) (B1) (B2) (A1) (A2)
                 (B2) (A1)
       Virtual   (B1) (A1) (A1) (B2) (B1) (A1) (B2) (B2) (A1) (A2)
                 (A1) (B1) (B2) (A1) (B2) (B1) (A1) (A1) (B2) (B2)
                 (A2) (A1) (B1) (B2) (A1) (A1) (B2) (A2) (A1) (B1)
                 (B2) (A1) (A2) (B1) (B2) (A1) (B2) (B1) (A2) (A1)
                 (A1) (B2) (B1) (B2) (A1) (A2) (B2) (A1) (B1) (A1)
                 (B2) (A1) (A1) (B2)
 The electronic state of the initial guess is 1-A1.
 Leave Link  401 at Sat Oct  6 02:09:46 2012, MaxMem=  262144000 cpu:       0.2
 (Enter /apps/rhel5/g09-C.01/g09/l502.exe)
 Closed shell SCF:
 Requested convergence on RMS density matrix=1.00D-07 within 400 cycles.
 Requested convergence on MAX density matrix=1.00D-05.
 Requested convergence on             energy=1.00D-05.
 Level shift goal  0.100 maximum shift  0.100.
 No special actions if energy rises.
 Dynamic level shift is on during FON iterations.
 Using DIIS extrapolation, IDIIS=    10.
 Integral symmetry usage will be decided dynamically.
        25487 words used for storage of precomputed grid.
 Keep J ints in memory in canonical form, NReq=4009522.
 IEnd=      203930 IEndB=      203930 NGot=   262144000 MDV=   259188353
 LenX=   259188353 LenY=   259183151
 Symmetry not used in FoFDir.
 MinBra= 0 MaxBra= 2 Meth= 1.
 IRaf=       0 NMat=   1 IRICut=       1 DoRegI=T DoRafI=F ISym2E= 0 JSym2E=0.

 Cycle   1  Pass 1  IDiag  1:
 E= -225.451915888670    
 DIIS: error= 7.07D-04 at cycle   1 NSaved=   1.
 NSaved= 1 IEnMin= 1 EnMin= -225.451915888670     IErMin= 1 ErrMin= 7.07D-04
 ErrMax= 7.07D-04 EMaxC= 1.00D+00 BMatC= 3.86D-05 BMatP= 3.86D-05
 IDIUse=1 WtCom= 1.00D+00 WtEn= 0.00D+00
 Coeff-Com:  0.100D+01
 Coeff:      0.100D+01
 Gap=     0.062 Goal=     0.100 Shift=    0.038
 RMSDP=1.52D-04 MaxDP=1.20D-03              OVMax= 4.06D-03

 Cycle   2  Pass 1  IDiag  1:
 E= -225.451973761835     Delta-E=       -0.000057873165 Rises=F Damp=F
 DIIS: error= 1.57D-04 at cycle   2 NSaved=   2.
 NSaved= 2 IEnMin= 2 EnMin= -225.451973761835     IErMin= 2 ErrMin= 1.57D-04
 ErrMax= 1.57D-04 EMaxC= 1.00D+00 BMatC= 2.00D-06 BMatP= 3.86D-05
 IDIUse=1 WtCom= 1.00D+00 WtEn= 0.00D+00
 Coeff-Com:  0.556D-01 0.944D+00
 Coeff:      0.556D-01 0.944D+00
 Gap=     0.062 Goal=     0.100 Shift=    0.038
 RMSDP=3.08D-05 MaxDP=3.02D-04 DE=-5.79D-05 OVMax= 5.53D-04

 Cycle   3  Pass 1  IDiag  1:
 E= -225.451974425887     Delta-E=       -0.000000664051 Rises=F Damp=F
 DIIS: error= 9.38D-05 at cycle   3 NSaved=   3.
 NSaved= 3 IEnMin= 3 EnMin= -225.451974425887     IErMin= 3 ErrMin= 9.38D-05
 ErrMax= 9.38D-05 EMaxC= 1.00D+00 BMatC= 7.92D-07 BMatP= 2.00D-06
 IDIUse=1 WtCom= 1.00D+00 WtEn= 0.00D+00
 Coeff-Com: -0.651D-02 0.375D+00 0.632D+00
 Coeff:     -0.651D-02 0.375D+00 0.632D+00
 Gap=     0.062 Goal=     0.100 Shift=    0.038
 RMSDP=1.00D-05 MaxDP=1.66D-04 DE=-6.64D-07 OVMax= 2.37D-04

 Cycle   4  Pass 1  IDiag  1:
 E= -225.451974738541     Delta-E=       -0.000000312654 Rises=F Damp=F
 DIIS: error= 8.39D-05 at cycle   4 NSaved=   4.
 NSaved= 4 IEnMin= 4 EnMin= -225.451974738541     IErMin= 4 ErrMin= 8.39D-05
 ErrMax= 8.39D-05 EMaxC= 1.00D+00 BMatC= 3.04D-07 BMatP= 7.92D-07
 IDIUse=1 WtCom= 1.00D+00 WtEn= 0.00D+00
 Coeff-Com: -0.653D-02 0.202D+00 0.421D+00 0.383D+00
 Coeff:     -0.653D-02 0.202D+00 0.421D+00 0.383D+00
 Gap=     0.062 Goal=     0.100 Shift=    0.038
 RMSDP=4.86D-06 MaxDP=6.50D-05 DE=-3.13D-07 OVMax= 2.19D-04

 Cycle   5  Pass 1  IDiag  1:
 E= -225.451974898977     Delta-E=       -0.000000160436 Rises=F Damp=F
 DIIS: error= 4.42D-05 at cycle   5 NSaved=   5.
 NSaved= 5 IEnMin= 5 EnMin= -225.451974898977     IErMin= 5 ErrMin= 4.42D-05
 ErrMax= 4.42D-05 EMaxC= 1.00D+00 BMatC= 4.88D-08 BMatP= 3.04D-07
 IDIUse=1 WtCom= 1.00D+00 WtEn= 0.00D+00
 Coeff-Com: -0.137D-02 0.721D-01 0.181D+00 0.282D+00 0.466D+00
 Coeff:     -0.137D-02 0.721D-01 0.181D+00 0.282D+00 0.466D+00
 Gap=     0.062 Goal=     0.100 Shift=    0.038
 RMSDP=1.81D-06 MaxDP=3.07D-05 DE=-1.60D-07 OVMax= 5.46D-05

 Cycle   6  Pass 1  IDiag  1:
 E= -225.451974930768     Delta-E=       -0.000000031792 Rises=F Damp=F
 DIIS: error= 2.40D-06 at cycle   6 NSaved=   6.
 NSaved= 6 IEnMin= 6 EnMin= -225.451974930768     IErMin= 6 ErrMin= 2.40D-06
 ErrMax= 2.40D-06 EMaxC= 1.00D+00 BMatC= 3.45D-10 BMatP= 4.88D-08
 IDIUse=1 WtCom= 1.00D+00 WtEn= 0.00D+00
 Coeff-Com: -0.200D-03 0.522D-02 0.236D-01 0.686D-01 0.906D-01 0.812D+00
 Coeff:     -0.200D-03 0.522D-02 0.236D-01 0.686D-01 0.906D-01 0.812D+00
 Gap=     0.062 Goal=     0.100 Shift=    0.038
 RMSDP=2.45D-07 MaxDP=2.17D-06 DE=-3.18D-08 OVMax= 7.72D-06

 Cycle   7  Pass 1  IDiag  1:
 E= -225.451974931001     Delta-E=       -0.000000000232 Rises=F Damp=F
 DIIS: error= 3.92D-07 at cycle   7 NSaved=   7.
 NSaved= 7 IEnMin= 7 EnMin= -225.451974931001     IErMin= 7 ErrMin= 3.92D-07
 ErrMax= 3.92D-07 EMaxC= 1.00D+00 BMatC= 6.10D-12 BMatP= 3.45D-10
 IDIUse=1 WtCom= 1.00D+00 WtEn= 0.00D+00
 Coeff-Com: -0.459D-04 0.402D-03 0.452D-02 0.149D-01 0.268D-01 0.188D+00
 Coeff-Com:  0.766D+00
 Coeff:     -0.459D-04 0.402D-03 0.452D-02 0.149D-01 0.268D-01 0.188D+00
 Coeff:      0.766D+00
 Gap=     0.062 Goal=     0.100 Shift=    0.038
 RMSDP=3.54D-08 MaxDP=4.27D-07 DE=-2.32D-10 OVMax= 4.96D-07

 SCF Done:  E(RPW91-PW91) =  -225.451974931     A.U. after    7 cycles
             Convg  =    0.3544D-07             -V/T =  2.0017
 KE= 2.250712024019D+02 PE=-6.699961211638D+02 EE= 1.509402483626D+02
 Leave Link  502 at Sat Oct  6 02:09:47 2012, MaxMem=  262144000 cpu:       1.0
 (Enter /apps/rhel5/g09-C.01/g09/l701.exe)
 Compute integral first derivatives.
 ... and contract with generalized density number  0.
 Leave Link  701 at Sat Oct  6 02:09:48 2012, MaxMem=  262144000 cpu:       0.2
 (Enter /apps/rhel5/g09-C.01/g09/l702.exe)
 L702 exits ... SP integral derivatives will be done elsewhere.
 Leave Link  702 at Sat Oct  6 02:09:48 2012, MaxMem=  262144000 cpu:       0.1
 (Enter /apps/rhel5/g09-C.01/g09/l703.exe)
 Compute integral first derivatives, UseDBF=F ICtDFT=           0.
 Integral derivatives from FoFDir, PRISM(SPDF).
 Calling FoFJK, ICntrl=      2527 FMM=F ISym2X=1 I1Cent= 0 IOpClX= 0 NMat=1 NMatS=1 NMatT=0.
 FoFCou: FMM=F IPFlag=           0 FMFlag=      100000 FMFlg1=         800
         NFxFlg=           0 DoJE=F BraDBF=F KetDBF=F FulRan=T
         Omega=  0.000000  0.000000  1.000000  0.000000  0.000000 ICntrl=    2527 IOpCl=  0
         NMat0=    1 NMatS0=    1 NMatT0=    0 NMatD0=    1 NMtDS0=    0 NMtDT0=    0
         I1Cent=           0 NGrid=           0.
 Petite list used in FoFCou.
 Leave Link  703 at Sat Oct  6 02:09:48 2012, MaxMem=  262144000 cpu:       0.6
 (Enter /apps/rhel5/g09-C.01/g09/l716.exe)
 Dipole        = 2.46952770D-17 0.00000000D+00 2.52562475D-01
 ***** Axes restored to original set *****
 -------------------------------------------------------------------
 Center     Atomic                   Forces (Hartrees/Bohr)
 Number     Number              X              Y              Z
 -------------------------------------------------------------------
      1        8           0.000201701    0.000000000    0.000123603
      2        8           0.000041190    0.000000000   -0.000293590
      3        8          -0.000242891    0.000000000    0.000169988
 -------------------------------------------------------------------
 Cartesian Forces:  Max     0.000293590 RMS     0.000160466
 Leave Link  716 at Sat Oct  6 02:09:48 2012, MaxMem=  262144000 cpu:       0.1
 (Enter /apps/rhel5/g09-C.01/g09/l103.exe)

 GradGradGradGradGradGradGradGradGradGradGradGradGradGradGradGradGradGrad
 Berny optimization.
 Using GDIIS optimizer.
 Internal  Forces:  Max     0.000294082 RMS     0.000245731
 Search for a local minimum.
 Step number   4 out of a maximum of   20
 All quantities printed in internal units (Hartrees-Bohrs-Radians)
 Swaping is turned off.
 Update second derivatives using D2CorX and points    1    2    3    4
 DE= -4.37D-05 DEPred=-4.26D-05 R= 1.03D+00
 SS=  1.41D+00  RLast= 1.38D-02 DXNew= 7.2912D-01 4.1384D-02
 Trust test= 1.03D+00 RLast= 1.38D-02 DXMaxT set to 4.34D-01
 The second derivative matrix:
                          R1        R2        A1
           R1           0.77270
           R2          -0.18113   0.77270
           A1           0.08059   0.08059   0.51971
 ITU=  1  1  1  0
     Eigenvalues ---    0.43614   0.67514   0.95383
 Cut down GDIIS permanently because of the redundancy. E 1
 DIIS coeff's:      1.02455     -0.02455
 Cosine:  1.000 >  0.500
 Length:  1.000
 GDIIS step was calculated using  2 of the last  4 vectors.
 Iteration  1 RMS(Cart)=  0.00037348 RMS(Int)=  0.00000000
 Iteration  2 RMS(Cart)=  0.00000000 RMS(Int)=  0.00000000
 ClnCor:  largest displacement from symmetrization is 5.08D-15 for atom     1.
 Variable       Old X    -DE/DX   Delta X   Delta X   Delta X     New X
                                  (DIIS)     (GDIIS)  (Total)
    R1        2.41123  -0.00029  -0.00013  -0.00037  -0.00049   2.41073
    R2        2.41123  -0.00029  -0.00013  -0.00037  -0.00049   2.41073
    A1        2.06704  -0.00009   0.00029  -0.00031  -0.00002   2.06702
         Item               Value     Threshold  Converged?
 Maximum Force            0.000294     0.000450     YES
 RMS     Force            0.000246     0.000300     YES
 Maximum Displacement     0.000413     0.001800     YES
 RMS     Displacement     0.000373     0.001200     YES
 Predicted change in Energy=-1.463004D-07
 Optimization completed.
    -- Stationary point found.
                           ----------------------------
                           !   Optimized Parameters   !
                           ! (Angstroms and Degrees)  !
 --------------------------                            --------------------------
 ! Name  Definition              Value          Derivative Info.                !
 --------------------------------------------------------------------------------
 ! R1    R(1,2)                  1.276          -DE/DX =   -0.0003              !
 ! R2    R(1,3)                  1.276          -DE/DX =   -0.0003              !
 ! A1    A(2,1,3)              118.4329         -DE/DX =   -0.0001              !
 --------------------------------------------------------------------------------
 GradGradGradGradGradGradGradGradGradGradGradGradGradGradGradGradGradGrad

 Largest change from initial coordinates is atom    3       0.056 Angstoms.
 Leave Link  103 at Sat Oct  6 02:09:48 2012, MaxMem=  262144000 cpu:       0.0
 (Enter /apps/rhel5/g09-C.01/g09/l202.exe)
                          Input orientation:                          
 ---------------------------------------------------------------------
 Center     Atomic      Atomic             Coordinates (Angstroms)
 Number     Number       Type             X           Y           Z
 ---------------------------------------------------------------------
      1          8           0       -0.008860    0.000000   -0.005429
      2          8           0       -0.024815    0.000000    1.270438
      3          8           0        1.120703    0.000000   -0.598877
 ---------------------------------------------------------------------
                    Distance matrix (angstroms):
                    1          2          3
     1  O    0.000000
     2  O    1.275967   0.000000
     3  O    1.275967   2.192384   0.000000
 Stoichiometry    O3
 Framework group  C2V[C2(O),SGV(O2)]
 Deg. of freedom     2
 Full point group                 C2V     NOp   4
 RotChk:  IX=0 Diff= 9.04D-16
 Largest Abelian subgroup         C2V     NOp   4
 Largest concise Abelian subgroup C2      NOp   2
                         Standard orientation:                         
 ---------------------------------------------------------------------
 Center     Atomic      Atomic             Coordinates (Angstroms)
 Number     Number       Type             X           Y           Z
 ---------------------------------------------------------------------
      1          8           0        0.000000    0.000000    0.435357
      2          8           0        0.000000    1.096192   -0.217678
      3          8           0        0.000000   -1.096192   -0.217678
 ---------------------------------------------------------------------
 Rotational constants (GHZ):    111.1357149     13.1471567     11.7563960
 Leave Link  202 at Sat Oct  6 02:09:48 2012, MaxMem=  262144000 cpu:       0.0
 (Enter /apps/rhel5/g09-C.01/g09/l601.exe)
 Copying SCF densities to generalized density rwf, IOpCl= 0 IROHF=0.

 **********************************************************************

            Population analysis using the SCF density.

 **********************************************************************

 Orbital symmetries:
       Occupied  (A1) (B2) (A1) (A1) (B2) (A1) (B1) (B2) (A1) (A2)
                 (B2) (A1)
       Virtual   (B1) (A1) (A1) (B2) (B1) (A1) (B2) (A1) (B2) (A2)
                 (A1) (B1) (B2) (A1) (B2) (B1) (A1) (A1) (B2) (B2)
                 (A2) (A1) (B1) (B2) (A1) (A1) (B2) (A2) (A1) (B1)
                 (B2) (A1) (A2) (B1) (B2) (A1) (B2) (B1) (A2) (A1)
                 (A1) (B2) (B1) (B2) (A1) (A2) (B2) (A1) (B1) (A1)
                 (B2) (A1) (A1) (B2)
 The electronic state is 1-A1.
 Alpha  occ. eigenvalues --  -19.05446 -18.88343 -18.88341  -1.27453  -1.02346
 Alpha  occ. eigenvalues --   -0.71918  -0.55559  -0.54910  -0.53819  -0.34380
 Alpha  occ. eigenvalues --   -0.30620  -0.29776
 Alpha virt. eigenvalues --   -0.23544  -0.01251   0.05026   0.05594   0.09728
 Alpha virt. eigenvalues --    0.10424   0.12451   0.16972   0.17029   0.17062
 Alpha virt. eigenvalues --    0.19674   0.19798   0.25152   0.28999   0.33233
 Alpha virt. eigenvalues --    0.84990   0.85515   0.87390   0.90745   0.93323
 Alpha virt. eigenvalues --    0.94338   0.94801   0.96985   1.03406   1.16550
 Alpha virt. eigenvalues --    1.41616   1.42840   2.06323   2.15966   2.24807
 Alpha virt. eigenvalues --    2.47006   2.49681   2.63202   2.64201   2.65096
 Alpha virt. eigenvalues --    2.70437   2.81898   3.09331   3.24065   3.29993
 Alpha virt. eigenvalues --    3.68024   3.68209   4.53192   4.55367   4.55472
 Alpha virt. eigenvalues --    4.75087   4.78359   4.81191   4.81793   5.51575
 Alpha virt. eigenvalues --    6.12752  49.16718  49.24291  49.32555
          Condensed to atoms (all electrons):
              1          2          3
     1  O    7.459828   0.164134   0.164134
     2  O    0.164134   8.004457  -0.062639
     3  O    0.164134  -0.062639   8.004457
 Mulliken atomic charges:
              1
     1  O    0.211903
     2  O   -0.105952
     3  O   -0.105952
 Sum of Mulliken atomic charges =   0.00000
 Mulliken charges with hydrogens summed into heavy atoms:
              1
     1  O    0.211903
     2  O   -0.105952
     3  O   -0.105952
 Sum of Mulliken charges with hydrogens summed into heavy atoms =   0.00000
 Electronic spatial extent (au):  <R**2>=            113.0420
 Charge=              0.0000 electrons
 Dipole moment (field-independent basis, Debye):
    X=              0.0000    Y=              0.0000    Z=              0.6419  Tot=              0.6419
 Quadrupole moment (field-independent basis, Debye-Ang):
   XX=            -14.7321   YY=            -17.6411   ZZ=            -16.4003
   XY=              0.0000   XZ=              0.0000   YZ=              0.0000
 Traceless Quadrupole moment (field-independent basis, Debye-Ang):
   XX=              1.5257   YY=             -1.3833   ZZ=             -0.1425
   XY=              0.0000   XZ=              0.0000   YZ=              0.0000
 Octapole moment (field-independent basis, Debye-Ang**2):
  XXX=              0.0000  YYY=              0.0000  ZZZ=              1.2985  XYY=              0.0000
  XXY=              0.0000  XXZ=              0.3028  XZZ=              0.0000  YZZ=              0.0000
  YYZ=             -0.3803  XYZ=              0.0000
 Hexadecapole moment (field-independent basis, Debye-Ang**3):
 XXXX=            -10.7177 YYYY=            -90.9002 ZZZZ=            -22.3713 XXXY=              0.0000
 XXXZ=              0.0000 YYYX=              0.0000 YYYZ=              0.0000 ZZZX=              0.0000
 ZZZY=              0.0000 XXYY=            -16.4223 XXZZ=             -5.3671 YYZZ=            -18.5680
 XXYZ=              0.0000 YYXZ=              0.0000 ZZXY=              0.0000
 N-N= 6.853269546828D+01 E-N=-6.699961276089D+02  KE= 2.250712024019D+02
 Symmetry A1   KE= 1.398466500414D+02
 Symmetry A2   KE= 5.175256287801D+00
 Symmetry B1   KE= 4.639958088086D+00
 Symmetry B2   KE= 7.540933798463D+01
 No NMR shielding tensors so no spin-rotation constants.
 Leave Link  601 at Sat Oct  6 02:09:49 2012, MaxMem=  262144000 cpu:       0.2
 (Enter /apps/rhel5/g09-C.01/g09/l9999.exe)
 B after Tr=     0.000000    0.000000    0.000000
         Rot=    1.000000    0.000000    0.000000    0.000000 Ang=   0.00 deg.
 Final structure in terms of initial Z-matrix:
 O
 O,1,B1
 O,1,B2,2,A1
      Variables:
 B1=1.27596711
 B2=1.27596711
 A1=118.43291935
 1\1\GINC-STEELE-A065\FOpt\RPW91PW91\6-311++G(d,p)\O3\TMANZ\06-Oct-2012
 \0\\#P opt=gdiis PW91PW91/6-311++G** geom=connectivity guess=mix # scf
 =(fermi,conver=7,maxcycle=400) output=wfx\\Title Card Required\\0,1\O,
 -0.0088599114,0.,-0.0054293607\O,-0.0248149288,0.,1.2704379945\O,1.120
 7027997,0.,-0.5988770435\\Version=EM64L-G09RevC.01\State=1-A1\HF=-225.
 4519749\RMSD=3.544e-08\RMSF=1.605e-04\Dipole=-0.2153449,0.,-0.1319635\
 Quadrupole=-0.3577796,1.134355,-0.7765754,0.,0.4109665,0.\PG=C02V [C2(
 O1),SGV(O2)]\\@

 Writing a WFNX file to ozone_singlet_PW91.wfx.


 ACHIEVEMENT--  THE MAN WHO ROWS THE BOAT GENERALLY 
                DOESN'T HAVE TIME TO ROCK IT.

                   -- FROM THE BACK OF A SUGAR PACKET
 Job cpu time:  0 days  0 hours  0 minutes 13.1 seconds.
 File lengths (MBytes):  RWF=      9 Int=      0 D2E=      0 Chk=      1 Scr=      1
 Normal termination of Gaussian 09 at Sat Oct  6 02:09:49 2012.
real 16.37
user 10.61
sys 2.47
Machine:
steele-a065
