 Entering Gaussian System, Link 0=/apps/rhel5/g09-C.01/g09/g09
 Initial command:
 /apps/rhel5/g09-C.01/g09/l1.exe /scratch/scratch95/t/tmanz/gaussian/Gau-25685.inp -scrdir=/scratch/scratch95/t/tmanz/gaussian/
 Entering Link 1 = /apps/rhel5/g09-C.01/g09/l1.exe PID=     25687.
  
 Copyright (c) 1988,1990,1992,1993,1995,1998,2003,2009,2011,
            Gaussian, Inc.  All Rights Reserved.
  
 This is part of the Gaussian(R) 09 program.  It is based on
 the Gaussian(R) 03 system (copyright 2003, Gaussian, Inc.),
 the Gaussian(R) 98 system (copyright 1998, Gaussian, Inc.),
 the Gaussian(R) 94 system (copyright 1995, Gaussian, Inc.),
 the Gaussian 92(TM) system (copyright 1992, Gaussian, Inc.),
 the Gaussian 90(TM) system (copyright 1990, Gaussian, Inc.),
 the Gaussian 88(TM) system (copyright 1988, Gaussian, Inc.),
 the Gaussian 86(TM) system (copyright 1986, Carnegie Mellon
 University), and the Gaussian 82(TM) system (copyright 1983,
 Carnegie Mellon University). Gaussian is a federally registered
 trademark of Gaussian, Inc.
  
 This software contains proprietary and confidential information,
 including trade secrets, belonging to Gaussian, Inc.
  
 This software is provided under written license and may be
 used, copied, transmitted, or stored only in accord with that
 written license.
  
 The following legend is applicable only to US Government
 contracts under FAR:
  
                    RESTRICTED RIGHTS LEGEND
  
 Use, reproduction and disclosure by the US Government is
 subject to restrictions as set forth in subparagraphs (a)
 and (c) of the Commercial Computer Software - Restricted
 Rights clause in FAR 52.227-19.
  
 Gaussian, Inc.
 340 Quinnipiac St., Bldg. 40, Wallingford CT 06492
  
  
 ---------------------------------------------------------------
 Warning -- This program may not be used in any manner that
 competes with the business of Gaussian, Inc. or will provide
 assistance to any competitor of Gaussian, Inc.  The licensee
 of this program is prohibited from giving any competitor of
 Gaussian, Inc. access to this program.  By using this program,
 the user acknowledges that Gaussian, Inc. is engaged in the
 business of creating and licensing software in the field of
 computational chemistry and represents and warrants to the
 licensee that it is not a competitor of Gaussian, Inc. and that
 it will not use this program in any manner prohibited above.
 ---------------------------------------------------------------
  

 Cite this work as:
 Gaussian 09, Revision C.01,
 M. J. Frisch, G. W. Trucks, H. B. Schlegel, G. E. Scuseria, 
 M. A. Robb, J. R. Cheeseman, G. Scalmani, V. Barone, B. Mennucci, 
 G. A. Petersson, H. Nakatsuji, M. Caricato, X. Li, H. P. Hratchian, 
 A. F. Izmaylov, J. Bloino, G. Zheng, J. L. Sonnenberg, M. Hada, 
 M. Ehara, K. Toyota, R. Fukuda, J. Hasegawa, M. Ishida, T. Nakajima, 
 Y. Honda, O. Kitao, H. Nakai, T. Vreven, J. A. Montgomery, Jr., 
 J. E. Peralta, F. Ogliaro, M. Bearpark, J. J. Heyd, E. Brothers, 
 K. N. Kudin, V. N. Staroverov, T. Keith, R. Kobayashi, J. Normand, 
 K. Raghavachari, A. Rendell, J. C. Burant, S. S. Iyengar, J. Tomasi, 
 M. Cossi, N. Rega, J. M. Millam, M. Klene, J. E. Knox, J. B. Cross, 
 V. Bakken, C. Adamo, J. Jaramillo, R. Gomperts, R. E. Stratmann, 
 O. Yazyev, A. J. Austin, R. Cammi, C. Pomelli, J. W. Ochterski, 
 R. L. Martin, K. Morokuma, V. G. Zakrzewski, G. A. Voth, 
 P. Salvador, J. J. Dannenberg, S. Dapprich, A. D. Daniels, 
 O. Farkas, J. B. Foresman, J. V. Ortiz, J. Cioslowski, 
 and D. J. Fox, Gaussian, Inc., Wallingford CT, 2010.
 
 ******************************************
 Gaussian 09:  EM64L-G09RevC.01 23-Sep-2011
                 6-Oct-2012 
 ******************************************
 %NProcS=4
 Will use up to    4 processors via shared memory.
 %chk=ozone_triplet_CCSD.chk
 %mem=8000MB
 Default route: MaxDisk=200GB
 ----------------------------------------------------------------------
 # opt CCSD(full,SaveAmplitudes)/aug-cc-pVTZ geom=connectivity scf=(fer
 mi,maxcycle=400) # density=current output=wfx
 ----------------------------------------------------------------------
 1/18=20,19=15,38=1,57=2/1,3;
 2/9=110,12=2,17=6,18=5,40=1/2;
 3/5=16,6=1,7=10,11=9,16=1,25=1,30=1,71=1/1,2,3;
 4//1;
 5/5=2,7=400,22=13,38=5/2;
 8/6=4,9=120000,10=90/1,4;
 9/5=7,15=1,77=1/13;
 11/28=-8,29=200,42=3/11;
 10/5=6/2;
 6/7=2,8=2,9=2,10=2,22=-1,31=2/1;
 7/12=7/1,2,3,16;
 1/18=20,19=15/3(2);
 2/9=110/2;
 99/6=1200/99;
 2/9=110/2;
 3/5=16,6=1,7=10,11=9,16=1,25=1,30=1,71=1/1,2,3;
 4/5=5,16=3/1;
 5/5=2,7=400,22=13,38=5/2;
 8/6=4,9=120000,10=90/1,4;
 9/5=7,15=1,77=1/13;
 11/28=-8,29=200,42=3/11;
 10/5=6/2;
 7/12=7/1,2,3,16;
 1/18=20,19=15/3(-9);
 2/9=110/2;
 6/7=2,8=2,9=2,10=2,22=-1,31=2/1;
 99/6=1200/99;
 -------------------
 Title Card Required
 -------------------
 Charge =  0 Multiplicity = 3
 Symbolic Z-Matrix:
 O
 O                    1    B1
 O                    1    B2       2    A1
       Variables:
  B1                    1.34                     
  B2                    1.34                     
  A1                   98.                       
 

 GradGradGradGradGradGradGradGradGradGradGradGradGradGradGradGradGradGrad
 Berny optimization.
 Initialization pass.
                           ----------------------------
                           !    Initial Parameters    !
                           ! (Angstroms and Degrees)  !
 --------------------------                            --------------------------
 ! Name  Definition              Value          Derivative Info.                !
 --------------------------------------------------------------------------------
 ! R1    R(1,2)                  1.34           estimate D2E/DX2                !
 ! R2    R(1,3)                  1.34           estimate D2E/DX2                !
 ! A1    A(2,1,3)               98.0            estimate D2E/DX2                !
 --------------------------------------------------------------------------------
 Trust Radius=3.00D-01 FncErr=1.00D-07 GrdErr=1.00D-07
 Number of steps in this run=     20 maximum allowed number of steps=    100.
 GradGradGradGradGradGradGradGradGradGradGradGradGradGradGradGradGradGrad

                          Input orientation:                          
 ---------------------------------------------------------------------
 Center     Atomic      Atomic             Coordinates (Angstroms)
 Number     Number       Type             X           Y           Z
 ---------------------------------------------------------------------
      1          8           0        0.000000    0.000000    0.000000
      2          8           0        0.000000    0.000000    1.340000
      3          8           0        1.326959    0.000000   -0.186492
 ---------------------------------------------------------------------
                    Distance matrix (angstroms):
                    1          2          3
     1  O    0.000000
     2  O    1.340000   0.000000
     3  O    1.340000   2.022622   0.000000
 Stoichiometry    O3(3)
 Framework group  C2V[C2(O),SGV(O2)]
 Deg. of freedom     2
 Full point group                 C2V     NOp   4
 Largest Abelian subgroup         C2V     NOp   4
 Largest concise Abelian subgroup C2      NOp   2
                         Standard orientation:                         
 ---------------------------------------------------------------------
 Center     Atomic      Atomic             Coordinates (Angstroms)
 Number     Number       Type             X           Y           Z
 ---------------------------------------------------------------------
      1          8           0        0.000000    0.000000    0.586079
      2          8           0        0.000000    1.011311   -0.293040
      3          8           0        0.000000   -1.011311   -0.293040
 ---------------------------------------------------------------------
 Rotational constants (GHZ):     61.3240880     15.4467085     12.3387454
 Standard basis: Aug-CC-pVTZ (5D, 7F)
 There are    49 symmetry adapted basis functions of A1  symmetry.
 There are    21 symmetry adapted basis functions of A2  symmetry.
 There are    27 symmetry adapted basis functions of B1  symmetry.
 There are    41 symmetry adapted basis functions of B2  symmetry.
 Integral buffers will be    131072 words long.
 Raffenetti 2 integral format.
 Two-electron integral symmetry is turned on.
   138 basis functions,   216 primitive gaussians,   165 cartesian basis functions
    13 alpha electrons       11 beta electrons
       nuclear repulsion energy        67.2925495290 Hartrees.
 NAtoms=    3 NActive=    3 NUniq=    2 SFac= 2.25D+00 NAtFMM=   60 NAOKFM=F Big=F
 One-electron integrals computed using PRISM.
 NBasis=   138 RedAO= T  NBF=    49    21    27    41
 NBsUse=   138 1.00D-06 NBFU=    49    21    27    41
 Harris functional with IExCor=  205 diagonalized for initial guess.
 ExpMin= 5.97D-02 ExpMax= 1.53D+04 ExpMxC= 5.22D+02 IAcc=2 IRadAn=         4 AccDes= 0.00D+00
 HarFok:  IExCor=  205 AccDes= 0.00D+00 IRadAn=         4 IDoV= 1
 ScaDFX=  1.000000  1.000000  1.000000  1.000000
 FoFCou: FMM=F IPFlag=           0 FMFlag=      100000 FMFlg1=           0
         NFxFlg=           0 DoJE=T BraDBF=F KetDBF=T FulRan=T
         Omega=  0.000000  0.000000  1.000000  0.000000  0.000000 ICntrl=     500 IOpCl=  0
         NMat0=    1 NMatS0=    1 NMatT0=    0 NMatD0=    1 NMtDS0=    0 NMtDT0=    0
         I1Cent=           4 NGrid=           0.
 Petite list used in FoFCou.
 Initial guess orbital symmetries:
 Alpha Orbitals:
       Occupied  (A1) (B2) (A1) (A1) (B2) (A1) (B2) (A1) (B1) (A1)
                 (A2) (B2) (B1)
       Virtual   (B2) (A1) (A1) (B2) (B1) (A1) (B2) (A1) (A2) (B1)
                 (A1) (B2) (A1) (B2) (B1) (A1) (A2) (B2) (A1) (B2)
                 (B1) (A1) (B1) (A2) (B2) (A1) (B1) (A1) (B2) (A2)
                 (A1) (A1) (B2) (A2) (B1) (A1) (B2) (A1) (B2) (B1)
                 (A1) (A2) (B2) (A1) (B1) (A1) (B1) (B2) (B2) (A2)
                 (A1) (A2) (B1) (B2) (B2) (B1) (A1) (A2) (A1) (A1)
                 (B1) (B2) (A2) (B2) (A1) (A2) (A1) (B2) (A1) (B1)
                 (B1) (B2) (B2) (A2) (A1) (B2) (A1) (B1) (B2) (A1)
                 (A2) (A1) (B2) (B1) (A1) (B2) (A2) (B1) (B2) (A1)
                 (B1) (B2) (A1) (B1) (A2) (A1) (B2) (B2) (A1) (A2)
                 (B1) (A1) (A2) (B1) (B2) (A1) (B1) (A2) (A1) (B2)
                 (A1) (B1) (A2) (B2) (B1) (A1) (A2) (B2) (A1) (B2)
                 (A1) (B2) (A1) (B2) (A1)
 Beta  Orbitals:
       Occupied  (A1) (B2) (A1) (A1) (B2) (A1) (B2) (A1) (B1) (A1)
                 (A2)
       Virtual   (B2) (B1) (B2) (A1) (A1) (B2) (B1) (A1) (B2) (A1)
                 (A2) (B1) (A1) (B2) (A1) (B2) (B1) (A1) (A2) (B2)
                 (A1) (B2) (B1) (A1) (B1) (A2) (B2) (A1) (B1) (A1)
                 (B2) (A2) (A1) (A1) (B2) (A2) (B1) (A1) (B2) (A1)
                 (B2) (B1) (A1) (A2) (B2) (A1) (B1) (A1) (B1) (B2)
                 (B2) (A2) (A1) (A2) (B1) (B2) (B2) (B1) (A1) (A2)
                 (A1) (A1) (B1) (B2) (A2) (B2) (A1) (A2) (A1) (B2)
                 (A1) (B1) (B1) (B2) (B2) (A2) (A1) (B2) (A1) (B1)
                 (B2) (A1) (A2) (A1) (B2) (B1) (A1) (B2) (A2) (B1)
                 (B2) (A1) (B1) (B2) (A1) (B1) (A2) (A1) (B2) (B2)
                 (A1) (A2) (B1) (A1) (A2) (B1) (B2) (A1) (B1) (A2)
                 (A1) (B2) (A1) (B1) (A2) (B2) (B1) (A1) (A2) (B2)
                 (A1) (B2) (A1) (B2) (A1) (B2) (A1)
 The electronic state of the initial guess is 3-A2.
 Initial guess <Sx>= 0.0000 <Sy>= 0.0000 <Sz>= 1.0000 <S**2>= 2.0000 S= 1.0000
 Requested convergence on RMS density matrix=1.00D-08 within 400 cycles.
 Requested convergence on MAX density matrix=1.00D-06.
 Requested convergence on             energy=1.00D-06.
 Level shift goal  0.100 maximum shift  0.100.
 No special actions if energy rises.
 Dynamic level shift is on during FON iterations.
 Keep R1 and R2 ints in memory in canonical form, NReq=190101033.
 SCF Done:  E(UHF) =  -224.348068677     A.U. after   18 cycles
             Convg  =    0.4542D-08             -V/T =  2.0018
 <Sx>= 0.0000 <Sy>= 0.0000 <Sz>= 1.0000 <S**2>= 2.0938 S= 1.0310
 <L.S>= 0.000000000000E+00
 Annihilation of the first spin contaminant:
 S**2 before annihilation     2.0938,   after     2.0037
 Range of M.O.s used for correlation:     1   138
 NBasis=   138 NAE=    13 NBE=    11 NFC=     0 NFV=     0
 NROrb=    138 NOA=    13 NOB=    11 NVA=   125 NVB=   127

 **** Warning!!: The largest alpha MO coefficient is  0.15866756D+02


 **** Warning!!: The largest beta MO coefficient is  0.15304490D+02

 Semi-Direct transformation.
 ModeAB=           4 MOrb=            13 LenV=    1047874941
 LASXX=      4044839 LTotXX=     4044839 LenRXX=     8226976
 LTotAB=     4182137 MaxLAS=    14504490 LenRXY=           0
 NonZer=    12271815 LenScr=    19148800 LnRSAI=    14504490
 LnScr1=    22487040 LExtra=     1285007 Total=     65652313
 MaxDsk= 26843545600 SrtSym=           T ITran=            4
 JobTyp=1 Pass  1:  I=   1 to  13.
 (rs|ai) integrals will be sorted in core.
 ModeAB=           4 MOrb=            11 LenV=    1047874941
 LASXX=      3464635 LTotXX=     3464635 LenRXX=     6392755
 LTotAB=     2928120 MaxLAS=    12273030 LenRXY=           0
 NonZer=     9857390 LenScr=    15482880 LnRSAI=    12273030
 LnScr1=    19148800 LExtra=     9511983 Total=     62809448
 MaxDsk= 26843545600 SrtSym=           T ITran=            4
 JobTyp=2 Pass  1:  I=   1 to  11.
 (rs|ai) integrals will be sorted in core.
 Spin components of T(2) and E(2):
     alpha-alpha T2 =       0.2011729829D-01 E2=     -0.9582361655D-01
     alpha-beta  T2 =       0.1347735924D+00 E2=     -0.5446607910D+00
     beta-beta   T2 =       0.4763601201D-01 E2=     -0.1132852778D+00
 ANorm=    0.1096597876D+01
 E2 =    -0.7537696854D+00 EUMP2 =    -0.22510183836239D+03
 (S**2,0)=  0.20938D+01           (S**2,1)=  0.20449D+01
 E(PUHF)=      -0.22436200914D+03        E(PMP2)=      -0.22511223703D+03
 R2 and R3 integrals will be kept in memory, NReq=   189853785.
 Iterations=  50 Convergence= 0.100D-07
 Iteration Nr.   1
 **********************
 DD1Dir will call FoFMem   1 times, MxPair=       420
 NAB=   143 NAA=    78 NBB=    55.
 E(PMP3)=      -0.22509363351D+03
 MP4(R+Q)=  0.25071080D-01
 E3=        0.14506456D-01        EUMP3=      -0.22508733191D+03
 E4(DQ)=    0.39649416D-02        UMP4(DQ)=   -0.22508336696D+03
 E4(SDQ)=  -0.17198417D-01        UMP4(SDQ)=  -0.22510453032D+03
 DE(Corr)= -0.71462454     E(Corr)=     -225.06269322    
 NORM(A)=   0.10902690D+01
 Iteration Nr.   2
 **********************
 DD1Dir will call FoFMem   1 times, MxPair=       420
 NAB=   143 NAA=    78 NBB=    55.
 DE(Corr)= -0.75219225     E(CORR)=     -225.10026093     Delta=-3.76D-02
 NORM(A)=   0.11078236D+01
 Iteration Nr.   3
 **********************
 DD1Dir will call FoFMem   1 times, MxPair=       420
 NAB=   143 NAA=    78 NBB=    55.
 DE(Corr)= -0.75065050     E(CORR)=     -225.09871918     Delta= 1.54D-03
 NORM(A)=   0.11227255D+01
 Iteration Nr.   4
 **********************
 DD1Dir will call FoFMem   1 times, MxPair=       420
 NAB=   143 NAA=    78 NBB=    55.
 DE(Corr)= -0.75780615     E(CORR)=     -225.10587483     Delta=-7.16D-03
 NORM(A)=   0.11303277D+01
 Iteration Nr.   5
 **********************
 DD1Dir will call FoFMem   1 times, MxPair=       420
 NAB=   143 NAA=    78 NBB=    55.
 DE(Corr)= -0.75957611     E(CORR)=     -225.10764478     Delta=-1.77D-03
 NORM(A)=   0.11337367D+01
 Iteration Nr.   6
 **********************
 DD1Dir will call FoFMem   1 times, MxPair=       420
 NAB=   143 NAA=    78 NBB=    55.
 DE(Corr)= -0.76001312     E(CORR)=     -225.10808180     Delta=-4.37D-04
 NORM(A)=   0.11341094D+01
 Iteration Nr.   7
 **********************
 DD1Dir will call FoFMem   1 times, MxPair=       420
 NAB=   143 NAA=    78 NBB=    55.
 DE(Corr)= -0.76004055     E(CORR)=     -225.10810923     Delta=-2.74D-05
 NORM(A)=   0.11341697D+01
 Iteration Nr.   8
 **********************
 DD1Dir will call FoFMem   1 times, MxPair=       420
 NAB=   143 NAA=    78 NBB=    55.
 DE(Corr)= -0.76003244     E(CORR)=     -225.10810112     Delta= 8.11D-06
 NORM(A)=   0.11342067D+01
 Iteration Nr.   9
 **********************
 DD1Dir will call FoFMem   1 times, MxPair=       420
 NAB=   143 NAA=    78 NBB=    55.
 DE(Corr)= -0.76003291     E(CORR)=     -225.10810158     Delta=-4.67D-07
 NORM(A)=   0.11342038D+01
 Iteration Nr.  10
 **********************
 DD1Dir will call FoFMem   1 times, MxPair=       420
 NAB=   143 NAA=    78 NBB=    55.
 DE(Corr)= -0.76003377     E(CORR)=     -225.10810244     Delta=-8.60D-07
 NORM(A)=   0.11342159D+01
 Iteration Nr.  11
 **********************
 DD1Dir will call FoFMem   1 times, MxPair=       420
 NAB=   143 NAA=    78 NBB=    55.
 DE(Corr)= -0.76003816     E(CORR)=     -225.10810684     Delta=-4.39D-06
 NORM(A)=   0.11342253D+01
 Iteration Nr.  12
 **********************
 DD1Dir will call FoFMem   1 times, MxPair=       420
 NAB=   143 NAA=    78 NBB=    55.
 DE(Corr)= -0.76003952     E(CORR)=     -225.10810820     Delta=-1.36D-06
 NORM(A)=   0.11342345D+01
 Iteration Nr.  13
 **********************
 DD1Dir will call FoFMem   1 times, MxPair=       420
 NAB=   143 NAA=    78 NBB=    55.
 DE(Corr)= -0.76004226     E(CORR)=     -225.10811093     Delta=-2.74D-06
 NORM(A)=   0.11342399D+01
 Iteration Nr.  14
 **********************
 DD1Dir will call FoFMem   1 times, MxPair=       420
 NAB=   143 NAA=    78 NBB=    55.
 DE(Corr)= -0.76004299     E(CORR)=     -225.10811167     Delta=-7.38D-07
 NORM(A)=   0.11342421D+01
 Iteration Nr.  15
 **********************
 DD1Dir will call FoFMem   1 times, MxPair=       420
 NAB=   143 NAA=    78 NBB=    55.
 DE(Corr)= -0.76004339     E(CORR)=     -225.10811206     Delta=-3.91D-07
 NORM(A)=   0.11342430D+01
 Iteration Nr.  16
 **********************
 DD1Dir will call FoFMem   1 times, MxPair=       420
 NAB=   143 NAA=    78 NBB=    55.
 DE(Corr)= -0.76004357     E(CORR)=     -225.10811225     Delta=-1.88D-07
 NORM(A)=   0.11342432D+01
 Iteration Nr.  17
 **********************
 DD1Dir will call FoFMem   1 times, MxPair=       420
 NAB=   143 NAA=    78 NBB=    55.
 DE(Corr)= -0.76004352     E(CORR)=     -225.10811220     Delta= 5.55D-08
 NORM(A)=   0.11342432D+01
 Iteration Nr.  18
 **********************
 DD1Dir will call FoFMem   1 times, MxPair=       420
 NAB=   143 NAA=    78 NBB=    55.
 DE(Corr)= -0.76004355     E(CORR)=     -225.10811223     Delta=-3.30D-08
 NORM(A)=   0.11342432D+01
 Iteration Nr.  19
 **********************
 DD1Dir will call FoFMem   1 times, MxPair=       420
 NAB=   143 NAA=    78 NBB=    55.
 DE(Corr)= -0.76004354     E(CORR)=     -225.10811222     Delta= 1.15D-08
 NORM(A)=   0.11342432D+01
 Iteration Nr.  20
 **********************
 DD1Dir will call FoFMem   1 times, MxPair=       420
 NAB=   143 NAA=    78 NBB=    55.
 DE(Corr)= -0.76004355     E(CORR)=     -225.10811223     Delta=-1.15D-08
 NORM(A)=   0.11342433D+01
 Iteration Nr.  21
 **********************
 DD1Dir will call FoFMem   1 times, MxPair=       420
 NAB=   143 NAA=    78 NBB=    55.
 DE(Corr)= -0.76004356     E(CORR)=     -225.10811224     Delta=-9.31D-09
 NORM(A)=   0.11342433D+01
 Iteration Nr.  22
 **********************
 DD1Dir will call FoFMem   1 times, MxPair=       420
 NAB=   143 NAA=    78 NBB=    55.
 DE(Corr)= -0.76004356     E(CORR)=     -225.10811223     Delta= 4.91D-09
 NORM(A)=   0.11342433D+01
 Dominant configurations:
 ***********************
 Spin Case        I    J    A    B          Value
    BB            9        13            0.195355D+00
   BBBB          11   10   13   12       0.130602D+00
 Largest amplitude= 1.95D-01

 Z-AMPLITUDE ITERATIONS

 Iteration Nr.   1
 **********************
 DD1Dir will call FoFMem   1 times, MxPair=       420
 NAB=   143 NAA=    78 NBB=    55.
 DE(Z)  -0.71782376D+00          E(Z)=    -0.22506589243D+03
 NORM(A)=   0.11342414D+01
 Iteration Nr.   2
 **********************
 DD1Dir will call FoFMem   1 times, MxPair=       420
 NAB=   143 NAA=    78 NBB=    55.
 DE(Z)  -0.71782374D+00          E(Z)=    -0.22506589242D+03
 NORM(A)=   0.11342500D+01
 Iteration Nr.   3
 **********************
 DD1Dir will call FoFMem   1 times, MxPair=       420
 NAB=   143 NAA=    78 NBB=    55.
 DE(Z)  -0.71782344D+00          E(Z)=    -0.22506589212D+03
 NORM(A)=   0.11342387D+01
 Iteration Nr.   4
 **********************
 DD1Dir will call FoFMem   1 times, MxPair=       420
 NAB=   143 NAA=    78 NBB=    55.
 DE(Z)  -0.71782388D+00          E(Z)=    -0.22506589256D+03
 NORM(A)=   0.11342484D+01
 Iteration Nr.   5
 **********************
 DD1Dir will call FoFMem   1 times, MxPair=       420
 NAB=   143 NAA=    78 NBB=    55.
 DE(Z)  -0.71782359D+00          E(Z)=    -0.22506589227D+03
 NORM(A)=   0.11155313D+01
 Iteration Nr.   6
 **********************
 DD1Dir will call FoFMem   1 times, MxPair=       420
 NAB=   143 NAA=    78 NBB=    55.
 DE(Z)  -0.71847713D+00          E(Z)=    -0.22506654580D+03
 NORM(A)=   0.11155391D+01
 Iteration Nr.   7
 **********************
 DD1Dir will call FoFMem   1 times, MxPair=       420
 NAB=   143 NAA=    78 NBB=    55.
 DE(Z)  -0.71848687D+00          E(Z)=    -0.22506655555D+03
 NORM(A)=   0.11155420D+01
 Iteration Nr.   8
 **********************
 DD1Dir will call FoFMem   1 times, MxPair=       420
 NAB=   143 NAA=    78 NBB=    55.
 DE(Z)  -0.71848068D+00          E(Z)=    -0.22506654935D+03
 NORM(A)=   0.11155463D+01
 Iteration Nr.   9
 **********************
 DD1Dir will call FoFMem   1 times, MxPair=       420
 NAB=   143 NAA=    78 NBB=    55.
 DE(Z)  -0.71848828D+00          E(Z)=    -0.22506655695D+03
 NORM(A)=   0.11155492D+01
 Iteration Nr.  10
 **********************
 DD1Dir will call FoFMem   1 times, MxPair=       420
 NAB=   143 NAA=    78 NBB=    55.
 DE(Z)  -0.71848483D+00          E(Z)=    -0.22506655350D+03
 NORM(A)=   0.11155499D+01
 Iteration Nr.  11
 **********************
 DD1Dir will call FoFMem   1 times, MxPair=       420
 NAB=   143 NAA=    78 NBB=    55.
 DE(Z)  -0.71848599D+00          E(Z)=    -0.22506655467D+03
 NORM(A)=   0.11155502D+01
 Iteration Nr.  12
 **********************
 DD1Dir will call FoFMem   1 times, MxPair=       420
 NAB=   143 NAA=    78 NBB=    55.
 DE(Z)  -0.71848580D+00          E(Z)=    -0.22506655447D+03
 NORM(A)=   0.11155504D+01
 Iteration Nr.  13
 **********************
 DD1Dir will call FoFMem   1 times, MxPair=       420
 NAB=   143 NAA=    78 NBB=    55.
 DE(Z)  -0.71848577D+00          E(Z)=    -0.22506655445D+03
 NORM(A)=   0.11155504D+01
 Iteration Nr.  14
 **********************
 DD1Dir will call FoFMem   1 times, MxPair=       420
 NAB=   143 NAA=    78 NBB=    55.
 DE(Z)  -0.71848583D+00          E(Z)=    -0.22506655450D+03
 NORM(A)=   0.11155504D+01
 Iteration Nr.  15
 **********************
 DD1Dir will call FoFMem   1 times, MxPair=       420
 NAB=   143 NAA=    78 NBB=    55.
 DE(Z)  -0.71848580D+00          E(Z)=    -0.22506655447D+03
 NORM(A)=   0.11155504D+01
 Iteration Nr.  16
 **********************
 DD1Dir will call FoFMem   1 times, MxPair=       420
 NAB=   143 NAA=    78 NBB=    55.
 DE(Z)  -0.71848582D+00          E(Z)=    -0.22506655450D+03
 NORM(A)=   0.11155504D+01
 Iteration Nr.  17
 **********************
 DD1Dir will call FoFMem   1 times, MxPair=       420
 NAB=   143 NAA=    78 NBB=    55.
 DE(Z)  -0.71848581D+00          E(Z)=    -0.22506655449D+03
 NORM(A)=   0.11155504D+01
 Discarding MO integrals.

 S**2, projected HF & approx projected MPn energies after annihilation of
 unwanted spin states (see manual for definitions):

 spins       (S**2,0) (S**2,1)    PUHF        PMP2        PMP3        PMP4
 annihilated
 s+1         1.99756  2.00047 -224.362009 -225.112237 -225.093634
 s+1,s+2     2.00002  1.99998 -224.361655 -225.111930 -225.093369
 s+1 to s+3  2.00000  2.00000 -224.361658 -225.111931 -225.093368
 s+1 to s+4  2.00000  2.00000 -224.361658 -225.111931 -225.093368
 s+1 to s+5  2.00000  2.00000 -224.361658
 s+1 to s+6  2.00000  2.00000 -224.361658

          IDoAtm=111
          Differentiating once with respect to electric field.
                with respect to dipole field.
          Differentiating once with respect to nuclear coordinates.
          Keep R1 and R2 ints in memory in canonical form, NReq=189508370.
          There are     1 degrees of freedom in the 1st order CPHF.  IDoFFX=0.
 LinEq1:  Iter=  0 NonCon=     1 RMS=2.90D-03 Max=7.04D-02
 AX will form     1 AO Fock derivatives at one time.
 LinEq1:  Iter=  1 NonCon=     1 RMS=8.03D-04 Max=2.32D-02
 LinEq1:  Iter=  2 NonCon=     1 RMS=3.83D-04 Max=6.42D-03
 LinEq1:  Iter=  3 NonCon=     1 RMS=1.51D-04 Max=3.31D-03
 LinEq1:  Iter=  4 NonCon=     1 RMS=9.18D-05 Max=1.51D-03
 LinEq1:  Iter=  5 NonCon=     1 RMS=2.33D-05 Max=3.65D-04
 LinEq1:  Iter=  6 NonCon=     1 RMS=7.87D-06 Max=1.15D-04
 LinEq1:  Iter=  7 NonCon=     1 RMS=2.39D-06 Max=3.06D-05
 LinEq1:  Iter=  8 NonCon=     1 RMS=4.21D-07 Max=4.54D-06
 LinEq1:  Iter=  9 NonCon=     1 RMS=1.09D-07 Max=1.88D-06
 LinEq1:  Iter= 10 NonCon=     1 RMS=3.19D-08 Max=7.87D-07
 LinEq1:  Iter= 11 NonCon=     1 RMS=7.34D-09 Max=1.09D-07
 LinEq1:  Iter= 12 NonCon=     1 RMS=1.13D-09 Max=1.64D-08
 LinEq1:  Iter= 13 NonCon=     1 RMS=1.71D-10 Max=2.20D-09
 LinEq1:  Iter= 14 NonCon=     0 RMS=2.36D-11 Max=2.48D-10
 Linear equations converged to 1.000D-10 1.000D-09 after    14 iterations.
 End of Minotr Frequency-dependent properties file   721 does not exist.
 End of Minotr Frequency-dependent properties file   722 does not exist.

 **********************************************************************

            Population analysis using the QCI/CC density.

 **********************************************************************

 Orbital symmetries:
 Alpha Orbitals:
       Occupied  (A1) (B2) (A1) (A1) (B2) (A1) (B1) (A1) (B2) (A2)
                 (A1) (B2) (B1)
       Virtual   (A1) (B2) (A1) (B1) (B2) (A1) (A2) (B1) (B2) (A1)
                 (A1) (B2) (A1) (B2) (B1) (A1) (A2) (B2) (A1) (B2)
                 (B1) (A1) (B1) (A2) (B2) (A1) (B1) (A1) (B2) (A2)
                 (A1) (B2) (A1) (A2) (B1) (A1) (B2) (A1) (B2) (B1)
                 (A1) (A2) (B2) (A1) (B1) (A1) (B1) (B2) (A2) (B2)
                 (A1) (A2) (B2) (B1) (B1) (B2) (A1) (A2) (A1) (A1)
                 (B1) (B2) (A2) (B2) (A1) (A2) (A1) (B2) (A1) (B1)
                 (B1) (B2) (B2) (A2) (A1) (B2) (A1) (B1) (B2) (A1)
                 (A2) (A1) (B2) (B1) (A1) (B2) (A2) (B1) (B2) (A1)
                 (B1) (B2) (A1) (B1) (A1) (A2) (B2) (B2) (A1) (A2)
                 (B1) (B1) (A1) (A2) (A1) (B2) (B1) (A1) (A2) (B2)
                 (B1) (A1) (A2) (B2) (B1) (A1) (A2) (B2) (A1) (B2)
                 (A1) (B2) (A1) (B2) (A1)
 Beta  Orbitals:
       Occupied  (A1) (A1) (B2) (A1) (B2) (A1) (B2) (A1) (B1) (A2)
                 (A1)
       Virtual   (B2) (B1) (A1) (B2) (A1) (B1) (B2) (A1) (A2) (B1)
                 (A1) (B2) (B2) (A1) (A1) (B2) (B1) (A1) (A2) (B2)
                 (A1) (B2) (B1) (A1) (B1) (A2) (B2) (A1) (B2) (A1)
                 (B1) (A2) (A1) (B2) (A1) (A2) (A1) (B1) (B2) (A1)
                 (B2) (B1) (A1) (A2) (B2) (A1) (B1) (A1) (B1) (B2)
                 (A2) (B2) (A1) (A2) (B2) (B1) (B1) (B2) (A1) (A2)
                 (A1) (A1) (B1) (B2) (A2) (B2) (A1) (A2) (A1) (B2)
                 (A1) (B1) (B1) (B2) (B2) (A2) (A1) (B2) (A1) (B1)
                 (B2) (A1) (A2) (A1) (B2) (B1) (A1) (B2) (A2) (B1)
                 (B2) (A1) (B1) (B2) (A1) (B1) (A1) (A2) (B2) (B2)
                 (A1) (A2) (B1) (B1) (A2) (A1) (A1) (B2) (A1) (B1)
                 (A2) (B2) (B1) (A1) (A2) (B2) (B1) (A1) (A2) (B2)
                 (A1) (B2) (A1) (B2) (A1) (B2) (A1)
 The electronic state is 3-A2.
     Alpha Natural Orbital Coefficients:
                           1         2         3         4         5
     Eigenvalues --     0.99977   0.99977   0.99976   0.99300   0.99106
   1 1   O  1S          0.00000   0.01176   0.97808  -0.13260   0.00000
   2        2S          0.00000   0.00129  -0.01716   0.33991   0.00000
   3        3S          0.00000   0.00053   0.04374   0.09689   0.00000
   4        4S          0.00000   0.00130  -0.00323   0.15726   0.00000
   5        5S          0.00000   0.00074  -0.00215  -0.01965   0.00000
   6        6PX         0.00000   0.00000   0.00000   0.00000   0.00000
   7        6PY        -0.00003   0.00000   0.00000   0.00000   0.04487
   8        6PZ         0.00000   0.00007  -0.00374   0.01501   0.00000
   9        7PX         0.00000   0.00000   0.00000   0.00000   0.00000
  10        7PY         0.00132   0.00000   0.00000   0.00000   0.05517
  11        7PZ         0.00000  -0.00069   0.00087   0.01455   0.00000
  12        8PX         0.00000   0.00000   0.00000   0.00000   0.00000
  13        8PY        -0.00152   0.00000   0.00000   0.00000  -0.02648
  14        8PZ         0.00000  -0.00190  -0.00199   0.04544   0.00000
  15        9PX         0.00000   0.00000   0.00000   0.00000   0.00000
  16        9PY         0.00012   0.00000   0.00000   0.00000  -0.00248
  17        9PZ         0.00000  -0.00020   0.00018   0.01018   0.00000
  18       10D 0        0.00000  -0.00002  -0.00017  -0.00041   0.00000
  19       10D+1        0.00000   0.00000   0.00000   0.00000   0.00000
  20       10D-1        0.00000   0.00000   0.00000   0.00000  -0.00651
  21       10D+2        0.00000   0.00004   0.00036  -0.00079   0.00000
  22       10D-2        0.00000   0.00000   0.00000   0.00000   0.00000
  23       11D 0        0.00000   0.00024  -0.00005   0.00066   0.00000
  24       11D+1        0.00000   0.00000   0.00000   0.00000   0.00000
  25       11D-1       -0.00096   0.00000   0.00000   0.00000  -0.01473
  26       11D+2        0.00000  -0.00063   0.00071  -0.00440   0.00000
  27       11D-2        0.00000   0.00000   0.00000   0.00000   0.00000
  28       12D 0        0.00000   0.00088   0.00082  -0.00269   0.00000
  29       12D+1        0.00000   0.00000   0.00000   0.00000   0.00000
  30       12D-1        0.00039   0.00000   0.00000   0.00000   0.00812
  31       12D+2        0.00000  -0.00008   0.00008   0.00130   0.00000
  32       12D-2        0.00000   0.00000   0.00000   0.00000   0.00000
  33       13F 0        0.00000   0.00010  -0.00002   0.00068   0.00000
  34       13F+1        0.00000   0.00000   0.00000   0.00000   0.00000
  35       13F-1        0.00011   0.00000   0.00000   0.00000   0.00117
  36       13F+2        0.00000   0.00013  -0.00016   0.00282   0.00000
  37       13F-2        0.00000   0.00000   0.00000   0.00000   0.00000
  38       13F+3        0.00000   0.00000   0.00000   0.00000   0.00000
  39       13F-3       -0.00009   0.00000   0.00000   0.00000  -0.00124
  40       14F 0        0.00000  -0.00002  -0.00024   0.00021   0.00000
  41       14F+1        0.00000   0.00000   0.00000   0.00000   0.00000
  42       14F-1        0.00030   0.00000   0.00000   0.00000   0.00099
  43       14F+2        0.00000   0.00052  -0.00018   0.00190   0.00000
  44       14F-2        0.00000   0.00000   0.00000   0.00000   0.00000
  45       14F+3        0.00000   0.00000   0.00000   0.00000   0.00000
  46       14F-3       -0.00010   0.00000   0.00000   0.00000  -0.00061
  47 2   O  1S          0.69123   0.69118  -0.00892  -0.11380  -0.15077
  48        2S         -0.01186  -0.01126   0.00134   0.29070   0.39275
  49        3S          0.03137   0.03141  -0.00039   0.08318   0.11563
  50        4S          0.00243  -0.00074   0.00159   0.16753   0.26903
  51        5S          0.00023  -0.00050   0.00104   0.01761   0.00808
  52        6PX         0.00000   0.00000   0.00000   0.00000   0.00000
  53        6PY        -0.00133  -0.00159   0.00013  -0.00761   0.03886
  54        6PZ         0.00125   0.00112  -0.00029  -0.00816   0.00707
  55        7PX         0.00000   0.00000   0.00000   0.00000   0.00000
  56        7PY         0.00084   0.00071  -0.00058  -0.01300   0.04455
  57        7PZ        -0.00031  -0.00064   0.00043  -0.00711   0.01316
  58        8PX         0.00000   0.00000   0.00000   0.00000   0.00000
  59        8PY        -0.00234  -0.00050  -0.00048   0.00274   0.02658
  60        8PZ         0.00151   0.00108   0.00118  -0.01681   0.01460
  61        9PX         0.00000   0.00000   0.00000   0.00000   0.00000
  62        9PY        -0.00015  -0.00005  -0.00021  -0.00163   0.00556
  63        9PZ        -0.00002   0.00001   0.00021  -0.00177   0.00067
  64       10D 0       -0.00012  -0.00012  -0.00002  -0.00027  -0.00052
  65       10D+1        0.00000   0.00000   0.00000   0.00000   0.00000
  66       10D-1        0.00023   0.00024   0.00003  -0.00069   0.00168
  67       10D+2       -0.00001  -0.00004  -0.00001  -0.00187  -0.00032
  68       10D-2        0.00000   0.00000   0.00000   0.00000   0.00000
  69       11D 0        0.00001   0.00001   0.00014   0.00014   0.00025
  70       11D+1        0.00000   0.00000   0.00000   0.00000   0.00000
  71       11D-1        0.00045   0.00032  -0.00069  -0.00375   0.00094
  72       11D+2        0.00031   0.00045  -0.00035  -0.00538  -0.00179
  73       11D-2        0.00000   0.00000   0.00000   0.00000   0.00000
  74       12D 0       -0.00006   0.00031   0.00029  -0.00107   0.00063
  75       12D+1        0.00000   0.00000   0.00000   0.00000   0.00000
  76       12D-1       -0.00052  -0.00055  -0.00042   0.00125  -0.00109
  77       12D+2       -0.00066  -0.00025  -0.00014   0.00039   0.00038
  78       12D-2        0.00000   0.00000   0.00000   0.00000   0.00000
  79       13F 0        0.00002   0.00002  -0.00004  -0.00039  -0.00021
  80       13F+1        0.00000   0.00000   0.00000   0.00000   0.00000
  81       13F-1        0.00006   0.00005  -0.00004  -0.00084  -0.00097
  82       13F+2        0.00006   0.00007  -0.00010  -0.00137  -0.00111
  83       13F-2        0.00000   0.00000   0.00000   0.00000   0.00000
  84       13F+3        0.00000   0.00000   0.00000   0.00000   0.00000
  85       13F-3       -0.00003  -0.00009   0.00003   0.00087   0.00009
  86       14F 0        0.00010  -0.00004  -0.00011  -0.00016   0.00020
  87       14F+1        0.00000   0.00000   0.00000   0.00000   0.00000
  88       14F-1        0.00005  -0.00008  -0.00023  -0.00069  -0.00059
  89       14F+2        0.00010  -0.00005  -0.00024  -0.00114  -0.00072
  90       14F-2        0.00000   0.00000   0.00000   0.00000   0.00000
  91       14F+3        0.00000   0.00000   0.00000   0.00000   0.00000
  92       14F-3        0.00005   0.00008   0.00017   0.00073   0.00028
  93 3   O  1S         -0.69123   0.69118  -0.00892  -0.11380   0.15077
  94        2S          0.01186  -0.01126   0.00134   0.29070  -0.39275
  95        3S         -0.03137   0.03141  -0.00039   0.08318  -0.11563
  96        4S         -0.00243  -0.00074   0.00159   0.16753  -0.26903
  97        5S         -0.00023  -0.00050   0.00104   0.01761  -0.00808
  98        6PX         0.00000   0.00000   0.00000   0.00000   0.00000
  99        6PY        -0.00133   0.00159  -0.00013   0.00761   0.03886
 100        6PZ        -0.00125   0.00112  -0.00029  -0.00816  -0.00707
 101        7PX         0.00000   0.00000   0.00000   0.00000   0.00000
 102        7PY         0.00084  -0.00071   0.00058   0.01300   0.04455
 103        7PZ         0.00031  -0.00064   0.00043  -0.00711  -0.01316
 104        8PX         0.00000   0.00000   0.00000   0.00000   0.00000
 105        8PY        -0.00234   0.00050   0.00048  -0.00274   0.02658
 106        8PZ        -0.00151   0.00108   0.00118  -0.01681  -0.01460
 107        9PX         0.00000   0.00000   0.00000   0.00000   0.00000
 108        9PY        -0.00015   0.00005   0.00021   0.00163   0.00556
 109        9PZ         0.00002   0.00001   0.00021  -0.00177  -0.00067
 110       10D 0        0.00012  -0.00012  -0.00002  -0.00027   0.00052
 111       10D+1        0.00000   0.00000   0.00000   0.00000   0.00000
 112       10D-1        0.00023  -0.00024  -0.00003   0.00069   0.00168
 113       10D+2        0.00001  -0.00004  -0.00001  -0.00187   0.00032
 114       10D-2        0.00000   0.00000   0.00000   0.00000   0.00000
 115       11D 0       -0.00001   0.00001   0.00014   0.00014  -0.00025
 116       11D+1        0.00000   0.00000   0.00000   0.00000   0.00000
 117       11D-1        0.00045  -0.00032   0.00069   0.00375   0.00094
 118       11D+2       -0.00031   0.00045  -0.00035  -0.00538   0.00179
 119       11D-2        0.00000   0.00000   0.00000   0.00000   0.00000
 120       12D 0        0.00006   0.00031   0.00029  -0.00107  -0.00063
 121       12D+1        0.00000   0.00000   0.00000   0.00000   0.00000
 122       12D-1       -0.00052   0.00055   0.00042  -0.00125  -0.00109
 123       12D+2        0.00066  -0.00025  -0.00014   0.00039  -0.00038
 124       12D-2        0.00000   0.00000   0.00000   0.00000   0.00000
 125       13F 0       -0.00002   0.00002  -0.00004  -0.00039   0.00021
 126       13F+1        0.00000   0.00000   0.00000   0.00000   0.00000
 127       13F-1        0.00006  -0.00005   0.00004   0.00084  -0.00097
 128       13F+2       -0.00006   0.00007  -0.00010  -0.00137   0.00111
 129       13F-2        0.00000   0.00000   0.00000   0.00000   0.00000
 130       13F+3        0.00000   0.00000   0.00000   0.00000   0.00000
 131       13F-3       -0.00003   0.00009  -0.00003  -0.00087   0.00009
 132       14F 0       -0.00010  -0.00004  -0.00011  -0.00016  -0.00020
 133       14F+1        0.00000   0.00000   0.00000   0.00000   0.00000
 134       14F-1        0.00005   0.00008   0.00023   0.00069  -0.00059
 135       14F+2       -0.00010  -0.00005  -0.00024  -0.00114   0.00072
 136       14F-2        0.00000   0.00000   0.00000   0.00000   0.00000
 137       14F+3        0.00000   0.00000   0.00000   0.00000   0.00000
 138       14F-3        0.00005  -0.00008  -0.00017  -0.00073   0.00028
                           6         7         8         9        10
     Eigenvalues --     0.98895   0.98746   0.98417   0.98381   0.98273
   1 1   O  1S         -0.15206   0.00000  -0.06234   0.00000   0.00000
   2        2S          0.41539   0.00000   0.16561   0.00000   0.00000
   3        3S          0.12590   0.00000   0.04958   0.00000   0.00000
   4        4S          0.35239   0.00000   0.11908   0.00000   0.00000
   5        5S          0.01536   0.00000   0.04239   0.00000   0.00000
   6        6PX         0.00000   0.28397   0.00000   0.00000   0.30102
   7        6PY         0.00000   0.00000   0.00000   0.00000   0.00000
   8        6PZ         0.10511   0.00000  -0.06127   0.00000   0.00000
   9        7PX         0.00000   0.35342   0.00000   0.00000   0.37242
  10        7PY         0.00000   0.00000   0.00000   0.00000   0.00000
  11        7PZ         0.12139   0.00000  -0.08034   0.00000   0.00000
  12        8PX         0.00000   0.18436   0.00000   0.00000   0.27679
  13        8PY         0.00000   0.00000   0.00000   0.00000   0.00000
  14        8PZ         0.03618   0.00000  -0.03466   0.00000   0.00000
  15        9PX         0.00000  -0.00063   0.00000   0.00000   0.03947
  16        9PY         0.00000   0.00000   0.00000   0.00000   0.00000
  17        9PZ         0.00213   0.00000  -0.00033   0.00000   0.00000
  18       10D 0       -0.00574   0.00000   0.00595   0.00000   0.00000
  19       10D+1        0.00000  -0.00680   0.00000   0.00000   0.00029
  20       10D-1        0.00000   0.00000   0.00000   0.00000   0.00000
  21       10D+2        0.00307   0.00000   0.00422   0.00000   0.00000
  22       10D-2        0.00000   0.00000   0.00000   0.00619   0.00000
  23       11D 0       -0.01444   0.00000   0.02267   0.00000   0.00000
  24       11D+1        0.00000  -0.02024   0.00000   0.00000   0.00646
  25       11D-1        0.00000   0.00000   0.00000   0.00000   0.00000
  26       11D+2        0.00076   0.00000   0.01442   0.00000   0.00000
  27       11D-2        0.00000   0.00000   0.00000   0.02384   0.00000
  28       12D 0       -0.00445   0.00000   0.00805   0.00000   0.00000
  29       12D+1        0.00000  -0.00718   0.00000   0.00000  -0.00146
  30       12D-1        0.00000   0.00000   0.00000   0.00000   0.00000
  31       12D+2       -0.00348   0.00000   0.00058   0.00000   0.00000
  32       12D-2        0.00000   0.00000   0.00000   0.00264   0.00000
  33       13F 0        0.00064   0.00000  -0.00189   0.00000   0.00000
  34       13F+1        0.00000   0.00081   0.00000   0.00000  -0.00113
  35       13F-1        0.00000   0.00000   0.00000   0.00000   0.00000
  36       13F+2        0.00071   0.00000   0.00000   0.00000   0.00000
  37       13F-2        0.00000   0.00000   0.00000  -0.00369   0.00000
  38       13F+3        0.00000  -0.00243   0.00000   0.00000   0.00048
  39       13F-3        0.00000   0.00000   0.00000   0.00000   0.00000
  40       14F 0        0.00224   0.00000  -0.00462   0.00000   0.00000
  41       14F+1        0.00000   0.00253   0.00000   0.00000  -0.00217
  42       14F-1        0.00000   0.00000   0.00000   0.00000   0.00000
  43       14F+2        0.00126   0.00000  -0.00097   0.00000   0.00000
  44       14F-2        0.00000   0.00000   0.00000  -0.00525   0.00000
  45       14F+3        0.00000  -0.00269   0.00000   0.00000   0.00177
  46       14F-3        0.00000   0.00000   0.00000   0.00000   0.00000
  47 2   O  1S          0.08751   0.00000   0.04738   0.00000   0.00000
  48        2S         -0.23474   0.00000  -0.13104   0.00000   0.00000
  49        3S         -0.07097   0.00000  -0.04080   0.00000   0.00000
  50        4S         -0.19457   0.00000  -0.13377   0.00000   0.00000
  51        5S         -0.01237   0.00000  -0.02108   0.00000   0.00000
  52        6PX         0.00000   0.16565   0.00000   0.28103  -0.22119
  53        6PY         0.03174   0.00000  -0.19421   0.00000   0.00000
  54        6PZ         0.08611   0.00000  -0.14006   0.00000   0.00000
  55        7PX         0.00000   0.20787   0.00000   0.34919  -0.27352
  56        7PY         0.04398   0.00000  -0.24158   0.00000   0.00000
  57        7PZ         0.10384   0.00000  -0.17554   0.00000   0.00000
  58        8PX         0.00000   0.10987   0.00000   0.23675  -0.21871
  59        8PY         0.04625   0.00000  -0.12760   0.00000   0.00000
  60        8PZ         0.03598   0.00000  -0.12512   0.00000   0.00000
  61        9PX         0.00000   0.00573   0.00000   0.02224  -0.03443
  62        9PY         0.00206   0.00000  -0.00400   0.00000   0.00000
  63        9PZ         0.00129   0.00000  -0.01283   0.00000   0.00000
  64       10D 0        0.00288   0.00000  -0.00248   0.00000   0.00000
  65       10D+1        0.00000   0.00307   0.00000   0.00213   0.00139
  66       10D-1       -0.00480   0.00000  -0.00248   0.00000   0.00000
  67       10D+2        0.00009   0.00000  -0.00389   0.00000   0.00000
  68       10D-2        0.00000  -0.00442   0.00000  -0.00254  -0.00033
  69       11D 0        0.00786   0.00000  -0.00821   0.00000   0.00000
  70       11D+1        0.00000   0.01036   0.00000   0.00617   0.00557
  71       11D-1       -0.00869   0.00000  -0.00561   0.00000   0.00000
  72       11D+2        0.00232   0.00000  -0.01077   0.00000   0.00000
  73       11D-2        0.00000  -0.01420   0.00000  -0.00573  -0.00296
  74       12D 0        0.00035   0.00000  -0.00407   0.00000   0.00000
  75       12D+1        0.00000   0.00043   0.00000   0.00574  -0.00215
  76       12D-1        0.00437   0.00000  -0.00157   0.00000   0.00000
  77       12D+2        0.00385   0.00000  -0.00407   0.00000   0.00000
  78       12D-2        0.00000  -0.00088   0.00000  -0.00459   0.00623
  79       13F 0       -0.00005   0.00000  -0.00070   0.00000   0.00000
  80       13F+1        0.00000   0.00068   0.00000   0.00049   0.00038
  81       13F-1       -0.00123   0.00000   0.00110   0.00000   0.00000
  82       13F+2       -0.00080   0.00000  -0.00030   0.00000   0.00000
  83       13F-2        0.00000  -0.00206   0.00000  -0.00097  -0.00124
  84       13F+3        0.00000  -0.00263   0.00000  -0.00201   0.00061
  85       13F-3       -0.00042   0.00000   0.00221   0.00000   0.00000
  86       14F 0        0.00028   0.00000  -0.00087   0.00000   0.00000
  87       14F+1        0.00000   0.00098   0.00000   0.00056   0.00106
  88       14F-1       -0.00114   0.00000   0.00097   0.00000   0.00000
  89       14F+2       -0.00046   0.00000   0.00028   0.00000   0.00000
  90       14F-2        0.00000  -0.00187   0.00000  -0.00046  -0.00159
  91       14F+3        0.00000  -0.00282   0.00000  -0.00145   0.00081
  92       14F-3       -0.00109   0.00000   0.00261   0.00000   0.00000
  93 3   O  1S          0.08751   0.00000   0.04738   0.00000   0.00000
  94        2S         -0.23474   0.00000  -0.13104   0.00000   0.00000
  95        3S         -0.07097   0.00000  -0.04080   0.00000   0.00000
  96        4S         -0.19457   0.00000  -0.13377   0.00000   0.00000
  97        5S         -0.01237   0.00000  -0.02108   0.00000   0.00000
  98        6PX         0.00000   0.16565   0.00000  -0.28103  -0.22119
  99        6PY        -0.03174   0.00000   0.19421   0.00000   0.00000
 100        6PZ         0.08611   0.00000  -0.14006   0.00000   0.00000
 101        7PX         0.00000   0.20787   0.00000  -0.34919  -0.27352
 102        7PY        -0.04398   0.00000   0.24158   0.00000   0.00000
 103        7PZ         0.10384   0.00000  -0.17554   0.00000   0.00000
 104        8PX         0.00000   0.10987   0.00000  -0.23675  -0.21871
 105        8PY        -0.04625   0.00000   0.12760   0.00000   0.00000
 106        8PZ         0.03598   0.00000  -0.12512   0.00000   0.00000
 107        9PX         0.00000   0.00573   0.00000  -0.02224  -0.03443
 108        9PY        -0.00206   0.00000   0.00400   0.00000   0.00000
 109        9PZ         0.00129   0.00000  -0.01283   0.00000   0.00000
 110       10D 0        0.00288   0.00000  -0.00248   0.00000   0.00000
 111       10D+1        0.00000   0.00307   0.00000  -0.00213   0.00139
 112       10D-1        0.00480   0.00000   0.00248   0.00000   0.00000
 113       10D+2        0.00009   0.00000  -0.00389   0.00000   0.00000
 114       10D-2        0.00000   0.00442   0.00000  -0.00254   0.00033
 115       11D 0        0.00786   0.00000  -0.00821   0.00000   0.00000
 116       11D+1        0.00000   0.01036   0.00000  -0.00617   0.00557
 117       11D-1        0.00869   0.00000   0.00561   0.00000   0.00000
 118       11D+2        0.00232   0.00000  -0.01077   0.00000   0.00000
 119       11D-2        0.00000   0.01420   0.00000  -0.00573   0.00296
 120       12D 0        0.00035   0.00000  -0.00407   0.00000   0.00000
 121       12D+1        0.00000   0.00043   0.00000  -0.00574  -0.00215
 122       12D-1       -0.00437   0.00000   0.00157   0.00000   0.00000
 123       12D+2        0.00385   0.00000  -0.00407   0.00000   0.00000
 124       12D-2        0.00000   0.00088   0.00000  -0.00459  -0.00623
 125       13F 0       -0.00005   0.00000  -0.00070   0.00000   0.00000
 126       13F+1        0.00000   0.00068   0.00000  -0.00049   0.00038
 127       13F-1        0.00123   0.00000  -0.00110   0.00000   0.00000
 128       13F+2       -0.00080   0.00000  -0.00030   0.00000   0.00000
 129       13F-2        0.00000   0.00206   0.00000  -0.00097   0.00124
 130       13F+3        0.00000  -0.00263   0.00000   0.00201   0.00061
 131       13F-3        0.00042   0.00000  -0.00221   0.00000   0.00000
 132       14F 0        0.00028   0.00000  -0.00087   0.00000   0.00000
 133       14F+1        0.00000   0.00098   0.00000  -0.00056   0.00106
 134       14F-1        0.00114   0.00000  -0.00097   0.00000   0.00000
 135       14F+2       -0.00046   0.00000   0.00028   0.00000   0.00000
 136       14F-2        0.00000   0.00187   0.00000  -0.00046   0.00159
 137       14F+3        0.00000  -0.00282   0.00000   0.00145   0.00081
 138       14F-3        0.00109   0.00000  -0.00261   0.00000   0.00000
                          11        12        13        14        15
     Eigenvalues --     0.98161   0.96820   0.96655   0.03193   0.03146
   1 1   O  1S          0.00000   0.00321   0.00000   0.00000   0.09266
   2        2S          0.00000   0.00107   0.00000   0.00000  -0.26244
   3        3S          0.00000   0.00593   0.00000   0.00000  -0.09560
   4        4S          0.00000   0.12978   0.00000   0.00000  -0.53490
   5        5S          0.00000   0.04582   0.00000   0.00000  -0.26571
   6        6PX         0.00000   0.00000   0.00000   0.00000   0.00000
   7        6PY        -0.05461   0.00000   0.26219   0.37933   0.00000
   8        6PZ         0.00000   0.28956   0.00000   0.00000   0.33632
   9        7PX         0.00000   0.00000   0.00000   0.00000   0.00000
  10        7PY        -0.07072   0.00000   0.33093   0.50167   0.00000
  11        7PZ         0.00000   0.36253   0.00000   0.00000   0.41912
  12        8PX         0.00000   0.00000   0.00000   0.00000   0.00000
  13        8PY        -0.04657   0.00000   0.20023   0.30506   0.00000
  14        8PZ         0.00000   0.21361   0.00000   0.00000   0.24110
  15        9PX         0.00000   0.00000   0.00000   0.00000   0.00000
  16        9PY        -0.01051   0.00000   0.00862   0.03228   0.00000
  17        9PZ         0.00000   0.00813   0.00000   0.00000   0.03161
  18       10D 0        0.00000  -0.00382   0.00000   0.00000   0.00387
  19       10D+1        0.00000   0.00000   0.00000   0.00000   0.00000
  20       10D-1       -0.00280   0.00000  -0.01266   0.01755   0.00000
  21       10D+2        0.00000   0.00630   0.00000   0.00000  -0.02077
  22       10D-2        0.00000   0.00000   0.00000   0.00000   0.00000
  23       11D 0        0.00000  -0.00791   0.00000   0.00000  -0.01251
  24       11D+1        0.00000   0.00000   0.00000   0.00000   0.00000
  25       11D-1       -0.01037   0.00000  -0.03650  -0.01700   0.00000
  26       11D+2        0.00000   0.01645   0.00000   0.00000  -0.01239
  27       11D-2        0.00000   0.00000   0.00000   0.00000   0.00000
  28       12D 0        0.00000  -0.01607   0.00000   0.00000  -0.01634
  29       12D+1        0.00000   0.00000   0.00000   0.00000   0.00000
  30       12D-1        0.00323   0.00000  -0.03174  -0.03760   0.00000
  31       12D+2        0.00000  -0.00033   0.00000   0.00000   0.01859
  32       12D-2        0.00000   0.00000   0.00000   0.00000   0.00000
  33       13F 0        0.00000  -0.00229   0.00000   0.00000  -0.00385
  34       13F+1        0.00000   0.00000   0.00000   0.00000   0.00000
  35       13F-1        0.00420   0.00000   0.00272   0.00201   0.00000
  36       13F+2        0.00000  -0.00427   0.00000   0.00000  -0.00329
  37       13F-2        0.00000   0.00000   0.00000   0.00000   0.00000
  38       13F+3        0.00000   0.00000   0.00000   0.00000   0.00000
  39       13F-3        0.00146   0.00000  -0.00234   0.00056   0.00000
  40       14F 0        0.00000  -0.00002   0.00000   0.00000  -0.00054
  41       14F+1        0.00000   0.00000   0.00000   0.00000   0.00000
  42       14F-1        0.00472   0.00000   0.00588   0.00620   0.00000
  43       14F+2        0.00000  -0.00176   0.00000   0.00000  -0.01163
  44       14F-2        0.00000   0.00000   0.00000   0.00000   0.00000
  45       14F+3        0.00000   0.00000   0.00000   0.00000   0.00000
  46       14F-3        0.00210   0.00000  -0.00173  -0.00644   0.00000
  47 2   O  1S         -0.03164  -0.00082   0.00459   0.04161  -0.04052
  48        2S          0.08945   0.00623  -0.01974  -0.11704   0.11845
  49        3S          0.02851   0.00476  -0.00833  -0.03619   0.03568
  50        4S          0.09271   0.05872  -0.12005  -0.27582   0.27003
  51        5S          0.02669   0.00574  -0.03223  -0.11688   0.12905
  52        6PX         0.00000   0.00000   0.00000   0.00000   0.00000
  53        6PY        -0.19391   0.05488  -0.17485   0.12928  -0.25154
  54        6PZ        -0.20520  -0.17793   0.09443  -0.23552   0.13561
  55        7PX         0.00000   0.00000   0.00000   0.00000   0.00000
  56        7PY        -0.24345   0.07244  -0.21534   0.20479  -0.32435
  57        7PZ        -0.25473  -0.22401   0.11883  -0.29274   0.20316
  58        8PX         0.00000   0.00000   0.00000   0.00000   0.00000
  59        8PY        -0.18147   0.00690  -0.11460   0.19456  -0.13099
  60        8PZ        -0.16121  -0.15276   0.02728  -0.10379   0.16711
  61        9PX         0.00000   0.00000   0.00000   0.00000   0.00000
  62        9PY        -0.02037  -0.00420  -0.00451   0.03234  -0.01116
  63        9PZ        -0.01221  -0.01245  -0.00728   0.00247   0.02876
  64       10D 0       -0.00315   0.00037   0.00220   0.00584   0.00199
  65       10D+1        0.00000   0.00000   0.00000   0.00000   0.00000
  66       10D-1        0.00144   0.00613  -0.00741  -0.01151   0.01164
  67       10D+2       -0.00121   0.00417  -0.00334  -0.00330   0.01004
  68       10D-2        0.00000   0.00000   0.00000   0.00000   0.00000
  69       11D 0       -0.00899   0.00140   0.00902   0.01063   0.00987
  70       11D+1        0.00000   0.00000   0.00000   0.00000   0.00000
  71       11D-1        0.00090   0.01653  -0.01780   0.00921  -0.01078
  72       11D+2       -0.00198   0.01078  -0.00515   0.01555   0.00232
  73       11D-2        0.00000   0.00000   0.00000   0.00000   0.00000
  74       12D 0       -0.00807  -0.00962  -0.00136  -0.00011   0.00560
  75       12D+1        0.00000   0.00000   0.00000   0.00000   0.00000
  76       12D-1        0.00007   0.01006  -0.00256   0.02174  -0.03160
  77       12D+2       -0.00494   0.00041  -0.00726   0.01959  -0.00846
  78       12D-2        0.00000   0.00000   0.00000   0.00000   0.00000
  79       13F 0       -0.00066   0.00176  -0.00065   0.00277   0.00182
  80       13F+1        0.00000   0.00000   0.00000   0.00000   0.00000
  81       13F-1        0.00133   0.00011  -0.00236  -0.00148  -0.00170
  82       13F+2        0.00053   0.00328  -0.00266   0.00332   0.00086
  83       13F-2        0.00000   0.00000   0.00000   0.00000   0.00000
  84       13F+3        0.00000   0.00000   0.00000   0.00000   0.00000
  85       13F-3        0.00116  -0.00191   0.00137  -0.00041  -0.00022
  86       14F 0       -0.00105   0.00132   0.00132   0.00364  -0.00214
  87       14F+1        0.00000   0.00000   0.00000   0.00000   0.00000
  88       14F-1        0.00106   0.00134  -0.00181   0.00320  -0.00521
  89       14F+2        0.00010   0.00224  -0.00127   0.00897  -0.00732
  90       14F-2        0.00000   0.00000   0.00000   0.00000   0.00000
  91       14F+3        0.00000   0.00000   0.00000   0.00000   0.00000
  92       14F-3        0.00071  -0.00082   0.00121  -0.00466   0.00171
  93 3   O  1S          0.03164  -0.00082  -0.00459  -0.04161  -0.04052
  94        2S         -0.08945   0.00623   0.01974   0.11704   0.11845
  95        3S         -0.02851   0.00476   0.00833   0.03619   0.03568
  96        4S         -0.09271   0.05872   0.12005   0.27582   0.27003
  97        5S         -0.02669   0.00574   0.03223   0.11688   0.12905
  98        6PX         0.00000   0.00000   0.00000   0.00000   0.00000
  99        6PY        -0.19391  -0.05488  -0.17485   0.12928   0.25154
 100        6PZ         0.20520  -0.17793  -0.09443   0.23552   0.13561
 101        7PX         0.00000   0.00000   0.00000   0.00000   0.00000
 102        7PY        -0.24345  -0.07244  -0.21534   0.20479   0.32435
 103        7PZ         0.25473  -0.22401  -0.11883   0.29274   0.20316
 104        8PX         0.00000   0.00000   0.00000   0.00000   0.00000
 105        8PY        -0.18147  -0.00690  -0.11460   0.19456   0.13099
 106        8PZ         0.16121  -0.15276  -0.02728   0.10379   0.16711
 107        9PX         0.00000   0.00000   0.00000   0.00000   0.00000
 108        9PY        -0.02037   0.00420  -0.00451   0.03234   0.01116
 109        9PZ         0.01221  -0.01245   0.00728  -0.00247   0.02876
 110       10D 0        0.00315   0.00037  -0.00220  -0.00584   0.00199
 111       10D+1        0.00000   0.00000   0.00000   0.00000   0.00000
 112       10D-1        0.00144  -0.00613  -0.00741  -0.01151  -0.01164
 113       10D+2        0.00121   0.00417   0.00334   0.00330   0.01004
 114       10D-2        0.00000   0.00000   0.00000   0.00000   0.00000
 115       11D 0        0.00899   0.00140  -0.00902  -0.01063   0.00987
 116       11D+1        0.00000   0.00000   0.00000   0.00000   0.00000
 117       11D-1        0.00090  -0.01653  -0.01780   0.00921   0.01078
 118       11D+2        0.00198   0.01078   0.00515  -0.01555   0.00232
 119       11D-2        0.00000   0.00000   0.00000   0.00000   0.00000
 120       12D 0        0.00807  -0.00962   0.00136   0.00011   0.00560
 121       12D+1        0.00000   0.00000   0.00000   0.00000   0.00000
 122       12D-1        0.00007  -0.01006  -0.00256   0.02174   0.03160
 123       12D+2        0.00494   0.00041   0.00726  -0.01959  -0.00846
 124       12D-2        0.00000   0.00000   0.00000   0.00000   0.00000
 125       13F 0        0.00066   0.00176   0.00065  -0.00277   0.00182
 126       13F+1        0.00000   0.00000   0.00000   0.00000   0.00000
 127       13F-1        0.00133  -0.00011  -0.00236  -0.00148   0.00170
 128       13F+2       -0.00053   0.00328   0.00266  -0.00332   0.00086
 129       13F-2        0.00000   0.00000   0.00000   0.00000   0.00000
 130       13F+3        0.00000   0.00000   0.00000   0.00000   0.00000
 131       13F-3        0.00116   0.00191   0.00137  -0.00041   0.00022
 132       14F 0        0.00105   0.00132  -0.00132  -0.00364  -0.00214
 133       14F+1        0.00000   0.00000   0.00000   0.00000   0.00000
 134       14F-1        0.00106  -0.00134  -0.00181   0.00320   0.00521
 135       14F+2       -0.00010   0.00224   0.00127  -0.00897  -0.00732
 136       14F-2        0.00000   0.00000   0.00000   0.00000   0.00000
 137       14F+3        0.00000   0.00000   0.00000   0.00000   0.00000
 138       14F-3        0.00071   0.00082   0.00121  -0.00466  -0.00171
                          16        17        18        19        20
     Eigenvalues --     0.01034   0.01019   0.00781   0.00681   0.00640
   1 1   O  1S          0.00000   0.00101   0.00000   0.00000  -0.15108
   2        2S          0.00000  -0.01299   0.00000   0.00000   0.42311
   3        3S          0.00000   0.01356   0.00000   0.00000   0.40640
   4        4S          0.00000  -0.29544   0.00000   0.00000  -0.76171
   5        5S          0.00000  -0.06089   0.00000   0.00000  -0.07698
   6        6PX        -0.34619   0.00000   0.00000   0.00000   0.00000
   7        6PY         0.00000   0.00000   0.00000   0.16895   0.00000
   8        6PZ         0.00000   0.14115   0.00000   0.00000   0.26904
   9        7PX        -0.15372   0.00000   0.00000   0.00000   0.00000
  10        7PY         0.00000   0.00000   0.00000   0.18168   0.00000
  11        7PZ         0.00000   0.13908   0.00000   0.00000   0.08254
  12        8PX         0.25280   0.00000   0.00000   0.00000   0.00000
  13        8PY         0.00000   0.00000   0.00000   0.28668   0.00000
  14        8PZ         0.00000   0.05541   0.00000   0.00000  -0.25770
  15        9PX        -0.04027   0.00000   0.00000   0.00000   0.00000
  16        9PY         0.00000   0.00000   0.00000   0.04599   0.00000
  17        9PZ         0.00000   0.02578   0.00000   0.00000  -0.04040
  18       10D 0        0.00000   0.02626   0.00000   0.00000   0.01333
  19       10D+1       -0.03691   0.00000   0.00000   0.00000   0.00000
  20       10D-1        0.00000   0.00000   0.00000  -0.02592   0.00000
  21       10D+2        0.00000   0.01410   0.00000   0.00000   0.04569
  22       10D-2        0.00000   0.00000   0.06792   0.00000   0.00000
  23       11D 0        0.00000   0.11001   0.00000   0.00000   0.04118
  24       11D+1       -0.11309   0.00000   0.00000   0.00000   0.00000
  25       11D-1        0.00000   0.00000   0.00000  -0.14357   0.00000
  26       11D+2        0.00000   0.08676   0.00000   0.00000   0.10973
  27       11D-2        0.00000   0.00000   0.21766   0.00000   0.00000
  28       12D 0        0.00000   0.07265   0.00000   0.00000   0.04531
  29       12D+1       -0.05794   0.00000   0.00000   0.00000   0.00000
  30       12D-1        0.00000   0.00000   0.00000  -0.13231   0.00000
  31       12D+2        0.00000   0.05297   0.00000   0.00000   0.05539
  32       12D-2        0.00000   0.00000   0.07570   0.00000   0.00000
  33       13F 0        0.00000  -0.00643   0.00000   0.00000  -0.00798
  34       13F+1        0.00585   0.00000   0.00000   0.00000   0.00000
  35       13F-1        0.00000   0.00000   0.00000   0.01339   0.00000
  36       13F+2        0.00000  -0.00614   0.00000   0.00000   0.00211
  37       13F-2        0.00000   0.00000  -0.01142   0.00000   0.00000
  38       13F+3       -0.00902   0.00000   0.00000   0.00000   0.00000
  39       13F-3        0.00000   0.00000   0.00000  -0.00092   0.00000
  40       14F 0        0.00000  -0.05238   0.00000   0.00000  -0.02820
  41       14F+1        0.02079   0.00000   0.00000   0.00000   0.00000
  42       14F-1        0.00000   0.00000   0.00000   0.05877   0.00000
  43       14F+2        0.00000  -0.02722   0.00000   0.00000  -0.03759
  44       14F-2        0.00000   0.00000  -0.05661   0.00000   0.00000
  45       14F+3       -0.01917   0.00000   0.00000   0.00000   0.00000
  46       14F-3        0.00000   0.00000   0.00000   0.00938   0.00000
  47 2   O  1S          0.00000   0.04701   0.00000  -0.07407  -0.13109
  48        2S          0.00000  -0.14640   0.00000   0.20510   0.35854
  49        3S          0.00000  -0.11455   0.00000   0.19231   0.33065
  50        4S          0.00000   0.24493   0.00000  -0.56098  -0.43071
  51        5S          0.00000   0.09036   0.00000  -0.15087  -0.06471
  52        6PX        -0.36365   0.00000  -0.42662   0.00000   0.00000
  53        6PY         0.00000   0.22303   0.00000   0.30169   0.09421
  54        6PZ         0.00000   0.31549   0.00000   0.21433  -0.01261
  55        7PX        -0.17276   0.00000  -0.16288   0.00000   0.00000
  56        7PY         0.00000   0.10054   0.00000   0.16158   0.01116
  57        7PZ         0.00000   0.20805   0.00000   0.03392   0.01976
  58        8PX         0.38300   0.00000   0.57560   0.00000   0.00000
  59        8PY         0.00000  -0.32692   0.00000  -0.31700  -0.10571
  60        8PZ         0.00000  -0.26964   0.00000  -0.54432   0.13098
  61        9PX         0.06580   0.00000   0.09806   0.00000   0.00000
  62        9PY         0.00000  -0.05273   0.00000  -0.06936   0.00230
  63        9PZ         0.00000  -0.04687   0.00000  -0.09826   0.02159
  64       10D 0        0.00000  -0.01665   0.00000  -0.00757  -0.03324
  65       10D+1        0.00769   0.00000   0.03054   0.00000   0.00000
  66       10D-1        0.00000   0.01424   0.00000  -0.01891   0.02168
  67       10D+2        0.00000  -0.01913   0.00000   0.00435  -0.00469
  68       10D-2       -0.02633   0.00000  -0.00568   0.00000   0.00000
  69       11D 0        0.00000  -0.02661   0.00000  -0.00923  -0.07265
  70       11D+1        0.03176   0.00000   0.05967   0.00000   0.00000
  71       11D-1        0.00000   0.02215   0.00000  -0.00948   0.01969
  72       11D+2        0.00000  -0.04392   0.00000   0.02185  -0.03283
  73       11D-2       -0.07640   0.00000  -0.00897   0.00000   0.00000
  74       12D 0        0.00000  -0.01636   0.00000  -0.04428  -0.00219
  75       12D+1        0.01212   0.00000   0.02730   0.00000   0.00000
  76       12D-1        0.00000   0.00253   0.00000   0.06917  -0.02058
  77       12D+2        0.00000  -0.04843   0.00000  -0.00105  -0.01087
  78       12D-2       -0.03329   0.00000  -0.03004   0.00000   0.00000
  79       13F 0        0.00000  -0.00187   0.00000  -0.00373  -0.00488
  80       13F+1        0.00099   0.00000   0.00449   0.00000   0.00000
  81       13F-1        0.00000   0.00664   0.00000   0.00417   0.00005
  82       13F+2        0.00000  -0.00113   0.00000  -0.00302  -0.00308
  83       13F-2       -0.00733   0.00000  -0.01051   0.00000   0.00000
  84       13F+3       -0.00661   0.00000  -0.00379   0.00000   0.00000
  85       13F-3        0.00000  -0.00017   0.00000   0.00513   0.00344
  86       14F 0        0.00000  -0.00142   0.00000   0.01054  -0.00593
  87       14F+1        0.00387   0.00000   0.00165   0.00000   0.00000
  88       14F-1        0.00000   0.00049   0.00000   0.00941   0.01224
  89       14F+2        0.00000   0.00064   0.00000   0.01291   0.00304
  90       14F-2       -0.01341   0.00000   0.00123   0.00000   0.00000
  91       14F+3       -0.01237   0.00000  -0.00042   0.00000   0.00000
  92       14F-3        0.00000   0.01173   0.00000  -0.00327  -0.00047
  93 3   O  1S          0.00000   0.04701   0.00000   0.07407  -0.13109
  94        2S          0.00000  -0.14640   0.00000  -0.20510   0.35854
  95        3S          0.00000  -0.11455   0.00000  -0.19231   0.33065
  96        4S          0.00000   0.24493   0.00000   0.56098  -0.43071
  97        5S          0.00000   0.09036   0.00000   0.15087  -0.06471
  98        6PX        -0.36365   0.00000   0.42662   0.00000   0.00000
  99        6PY         0.00000  -0.22303   0.00000   0.30169  -0.09421
 100        6PZ         0.00000   0.31549   0.00000  -0.21433  -0.01261
 101        7PX        -0.17276   0.00000   0.16288   0.00000   0.00000
 102        7PY         0.00000  -0.10054   0.00000   0.16158  -0.01116
 103        7PZ         0.00000   0.20805   0.00000  -0.03392   0.01976
 104        8PX         0.38300   0.00000  -0.57560   0.00000   0.00000
 105        8PY         0.00000   0.32692   0.00000  -0.31700   0.10571
 106        8PZ         0.00000  -0.26964   0.00000   0.54432   0.13098
 107        9PX         0.06580   0.00000  -0.09806   0.00000   0.00000
 108        9PY         0.00000   0.05273   0.00000  -0.06936  -0.00230
 109        9PZ         0.00000  -0.04687   0.00000   0.09826   0.02159
 110       10D 0        0.00000  -0.01665   0.00000   0.00757  -0.03324
 111       10D+1        0.00769   0.00000  -0.03054   0.00000   0.00000
 112       10D-1        0.00000  -0.01424   0.00000  -0.01891  -0.02168
 113       10D+2        0.00000  -0.01913   0.00000  -0.00435  -0.00469
 114       10D-2        0.02633   0.00000  -0.00568   0.00000   0.00000
 115       11D 0        0.00000  -0.02661   0.00000   0.00923  -0.07265
 116       11D+1        0.03176   0.00000  -0.05967   0.00000   0.00000
 117       11D-1        0.00000  -0.02215   0.00000  -0.00948  -0.01969
 118       11D+2        0.00000  -0.04392   0.00000  -0.02185  -0.03283
 119       11D-2        0.07640   0.00000  -0.00897   0.00000   0.00000
 120       12D 0        0.00000  -0.01636   0.00000   0.04428  -0.00219
 121       12D+1        0.01212   0.00000  -0.02730   0.00000   0.00000
 122       12D-1        0.00000  -0.00253   0.00000   0.06917   0.02058
 123       12D+2        0.00000  -0.04843   0.00000   0.00105  -0.01087
 124       12D-2        0.03329   0.00000  -0.03004   0.00000   0.00000
 125       13F 0        0.00000  -0.00187   0.00000   0.00373  -0.00488
 126       13F+1        0.00099   0.00000  -0.00449   0.00000   0.00000
 127       13F-1        0.00000  -0.00664   0.00000   0.00417  -0.00005
 128       13F+2        0.00000  -0.00113   0.00000   0.00302  -0.00308
 129       13F-2        0.00733   0.00000  -0.01051   0.00000   0.00000
 130       13F+3       -0.00661   0.00000   0.00379   0.00000   0.00000
 131       13F-3        0.00000   0.00017   0.00000   0.00513  -0.00344
 132       14F 0        0.00000  -0.00142   0.00000  -0.01054  -0.00593
 133       14F+1        0.00387   0.00000  -0.00165   0.00000   0.00000
 134       14F-1        0.00000  -0.00049   0.00000   0.00941  -0.01224
 135       14F+2        0.00000   0.00064   0.00000  -0.01291   0.00304
 136       14F-2        0.01341   0.00000   0.00123   0.00000   0.00000
 137       14F+3       -0.01237   0.00000   0.00042   0.00000   0.00000
 138       14F-3        0.00000  -0.01173   0.00000  -0.00327   0.00047
                          21        22        23        24        25
     Eigenvalues --     0.00586   0.00443   0.00383   0.00360   0.00358
   1 1   O  1S          0.00000   0.00000   0.14522   0.12214   0.00000
   2        2S          0.00000   0.00000  -0.34802  -0.29134   0.00000
   3        3S          0.00000   0.00000  -0.44089  -0.35544   0.00000
   4        4S          0.00000   0.00000   1.90253   0.96364   0.00000
   5        5S          0.00000   0.00000   0.72460   0.20162   0.00000
   6        6PX         0.54333   0.00000   0.00000   0.00000   0.00000
   7        6PY         0.00000  -0.06103   0.00000   0.00000   0.00000
   8        6PZ         0.00000   0.00000  -0.29835  -0.07440   0.00000
   9        7PX         0.08931   0.00000   0.00000   0.00000   0.00000
  10        7PY         0.00000   0.00488   0.00000   0.00000   0.00000
  11        7PZ         0.00000   0.00000  -0.05824   0.02403   0.00000
  12        8PX        -0.86657   0.00000   0.00000   0.00000   0.00000
  13        8PY         0.00000   0.53375   0.00000   0.00000   0.00000
  14        8PZ         0.00000   0.00000  -0.16386  -0.11622   0.00000
  15        9PX        -0.16114   0.00000   0.00000   0.00000   0.00000
  16        9PY         0.00000   0.10135   0.00000   0.00000   0.00000
  17        9PZ         0.00000   0.00000  -0.05779  -0.01153   0.00000
  18       10D 0        0.00000   0.00000   0.01138   0.13811   0.00000
  19       10D+1        0.00615   0.00000   0.00000   0.00000   0.00000
  20       10D-1        0.00000   0.08008   0.00000   0.00000   0.00000
  21       10D+2        0.00000   0.00000  -0.05275   0.02529   0.00000
  22       10D-2        0.00000   0.00000   0.00000   0.00000   0.19549
  23       11D 0        0.00000   0.00000   0.05346   0.30610   0.00000
  24       11D+1       -0.02633   0.00000   0.00000   0.00000   0.00000
  25       11D-1        0.00000   0.20486   0.00000   0.00000   0.00000
  26       11D+2        0.00000   0.00000  -0.06878   0.09529   0.00000
  27       11D-2        0.00000   0.00000   0.00000   0.00000   0.36272
  28       12D 0        0.00000   0.00000   0.03144   0.04442   0.00000
  29       12D+1        0.01252   0.00000   0.00000   0.00000   0.00000
  30       12D-1        0.00000  -0.07813   0.00000   0.00000   0.00000
  31       12D+2        0.00000   0.00000  -0.06147  -0.01884   0.00000
  32       12D-2        0.00000   0.00000   0.00000   0.00000   0.03659
  33       13F 0        0.00000   0.00000   0.00981  -0.02831   0.00000
  34       13F+1       -0.00348   0.00000   0.00000   0.00000   0.00000
  35       13F-1        0.00000  -0.01617   0.00000   0.00000   0.00000
  36       13F+2        0.00000   0.00000   0.00308  -0.01419   0.00000
  37       13F-2        0.00000   0.00000   0.00000   0.00000  -0.02832
  38       13F+3        0.01046   0.00000   0.00000   0.00000   0.00000
  39       13F-3        0.00000   0.00291   0.00000   0.00000   0.00000
  40       14F 0        0.00000   0.00000  -0.00371  -0.02276   0.00000
  41       14F+1        0.01340   0.00000   0.00000   0.00000   0.00000
  42       14F-1        0.00000  -0.05543   0.00000   0.00000   0.00000
  43       14F+2        0.00000   0.00000   0.01457   0.00344   0.00000
  44       14F-2        0.00000   0.00000   0.00000   0.00000  -0.00570
  45       14F+3       -0.01977   0.00000   0.00000   0.00000   0.00000
  46       14F-3        0.00000  -0.00971   0.00000   0.00000   0.00000
  47 2   O  1S          0.00000  -0.15765  -0.13568  -0.01135   0.00000
  48        2S          0.00000   0.43018   0.31969   0.04338   0.00000
  49        3S          0.00000   0.44939   0.38486   0.04436   0.00000
  50        4S          0.00000  -1.11679  -1.18188  -0.30979   0.00000
  51        5S          0.00000  -0.33046  -0.36403  -0.11708   0.00000
  52        6PX        -0.21754   0.00000   0.00000   0.00000   0.14546
  53        6PY         0.00000   0.01467   0.17607  -0.01340   0.00000
  54        6PZ         0.00000  -0.19906   0.08326  -0.09144   0.00000
  55        7PX        -0.05498   0.00000   0.00000   0.00000  -0.01226
  56        7PY         0.00000  -0.01228   0.03266   0.03381   0.00000
  57        7PZ         0.00000  -0.02668  -0.01055  -0.01769   0.00000
  58        8PX         0.48728   0.00000   0.00000   0.00000  -0.28491
  59        8PY         0.00000   0.20631   0.09964   0.20236   0.00000
  60        8PZ         0.00000   0.11312  -0.47025   0.07411   0.00000
  61        9PX         0.13798   0.00000   0.00000   0.00000  -0.03692
  62        9PY         0.00000   0.04172   0.03704   0.03014   0.00000
  63        9PZ         0.00000  -0.00981  -0.08313  -0.00158   0.00000
  64       10D 0        0.00000   0.02687   0.03884  -0.09630   0.00000
  65       10D+1       -0.05073   0.00000   0.00000   0.00000   0.08963
  66       10D-1        0.00000   0.09932  -0.02232   0.06006   0.00000
  67       10D+2        0.00000  -0.00809   0.04416  -0.12872   0.00000
  68       10D-2        0.02724   0.00000   0.00000   0.00000  -0.14264
  69       11D 0        0.00000   0.04941   0.10249  -0.18396   0.00000
  70       11D+1       -0.14538   0.00000   0.00000   0.00000   0.18621
  71       11D-1        0.00000   0.16735  -0.05631   0.10252   0.00000
  72       11D+2        0.00000  -0.03071   0.07746  -0.23485   0.00000
  73       11D-2        0.09580   0.00000   0.00000   0.00000  -0.28487
  74       12D 0        0.00000   0.01654  -0.00952  -0.00062   0.00000
  75       12D+1       -0.03278   0.00000   0.00000   0.00000   0.01691
  76       12D-1        0.00000   0.04351   0.07958   0.01612   0.00000
  77       12D+2        0.00000   0.02390   0.05049   0.00857   0.00000
  78       12D-2       -0.01155   0.00000   0.00000   0.00000  -0.01950
  79       13F 0        0.00000   0.00420   0.00042  -0.00982   0.00000
  80       13F+1       -0.00350   0.00000   0.00000   0.00000   0.00976
  81       13F-1        0.00000   0.00005  -0.00786   0.01413   0.00000
  82       13F+2        0.00000   0.00276  -0.00380  -0.00182   0.00000
  83       13F-2        0.00412   0.00000   0.00000   0.00000  -0.01405
  84       13F+3        0.00320   0.00000   0.00000   0.00000  -0.00765
  85       13F-3        0.00000  -0.00302   0.00088   0.00741   0.00000
  86       14F 0        0.00000   0.00234   0.00880  -0.00592   0.00000
  87       14F+1       -0.01895   0.00000   0.00000   0.00000   0.00679
  88       14F-1        0.00000   0.00970  -0.00865   0.00007   0.00000
  89       14F+2        0.00000   0.01008   0.00987  -0.00523   0.00000
  90       14F-2        0.03602   0.00000   0.00000   0.00000  -0.01691
  91       14F+3        0.01820   0.00000   0.00000   0.00000  -0.01344
  92       14F-3        0.00000  -0.01311  -0.00824   0.00096   0.00000
  93 3   O  1S          0.00000   0.15765  -0.13568  -0.01135   0.00000
  94        2S          0.00000  -0.43018   0.31969   0.04338   0.00000
  95        3S          0.00000  -0.44939   0.38486   0.04436   0.00000
  96        4S          0.00000   1.11679  -1.18188  -0.30979   0.00000
  97        5S          0.00000   0.33046  -0.36403  -0.11708   0.00000
  98        6PX        -0.21754   0.00000   0.00000   0.00000  -0.14546
  99        6PY         0.00000   0.01467  -0.17607   0.01340   0.00000
 100        6PZ         0.00000   0.19906   0.08326  -0.09144   0.00000
 101        7PX        -0.05498   0.00000   0.00000   0.00000   0.01226
 102        7PY         0.00000  -0.01228  -0.03266  -0.03381   0.00000
 103        7PZ         0.00000   0.02668  -0.01055  -0.01769   0.00000
 104        8PX         0.48728   0.00000   0.00000   0.00000   0.28491
 105        8PY         0.00000   0.20631  -0.09964  -0.20236   0.00000
 106        8PZ         0.00000  -0.11312  -0.47025   0.07411   0.00000
 107        9PX         0.13798   0.00000   0.00000   0.00000   0.03692
 108        9PY         0.00000   0.04172  -0.03704  -0.03014   0.00000
 109        9PZ         0.00000   0.00981  -0.08313  -0.00158   0.00000
 110       10D 0        0.00000  -0.02687   0.03884  -0.09630   0.00000
 111       10D+1       -0.05073   0.00000   0.00000   0.00000  -0.08963
 112       10D-1        0.00000   0.09932   0.02232  -0.06006   0.00000
 113       10D+2        0.00000   0.00809   0.04416  -0.12872   0.00000
 114       10D-2       -0.02724   0.00000   0.00000   0.00000  -0.14264
 115       11D 0        0.00000  -0.04941   0.10249  -0.18396   0.00000
 116       11D+1       -0.14538   0.00000   0.00000   0.00000  -0.18621
 117       11D-1        0.00000   0.16735   0.05631  -0.10252   0.00000
 118       11D+2        0.00000   0.03071   0.07746  -0.23485   0.00000
 119       11D-2       -0.09580   0.00000   0.00000   0.00000  -0.28487
 120       12D 0        0.00000  -0.01654  -0.00952  -0.00062   0.00000
 121       12D+1       -0.03278   0.00000   0.00000   0.00000  -0.01691
 122       12D-1        0.00000   0.04351  -0.07958  -0.01612   0.00000
 123       12D+2        0.00000  -0.02390   0.05049   0.00857   0.00000
 124       12D-2        0.01155   0.00000   0.00000   0.00000  -0.01950
 125       13F 0        0.00000  -0.00420   0.00042  -0.00982   0.00000
 126       13F+1       -0.00350   0.00000   0.00000   0.00000  -0.00976
 127       13F-1        0.00000   0.00005   0.00786  -0.01413   0.00000
 128       13F+2        0.00000  -0.00276  -0.00380  -0.00182   0.00000
 129       13F-2       -0.00412   0.00000   0.00000   0.00000  -0.01405
 130       13F+3        0.00320   0.00000   0.00000   0.00000   0.00765
 131       13F-3        0.00000  -0.00302  -0.00088  -0.00741   0.00000
 132       14F 0        0.00000  -0.00234   0.00880  -0.00592   0.00000
 133       14F+1       -0.01895   0.00000   0.00000   0.00000  -0.00679
 134       14F-1        0.00000   0.00970   0.00865  -0.00007   0.00000
 135       14F+2        0.00000  -0.01008   0.00987  -0.00523   0.00000
 136       14F-2       -0.03602   0.00000   0.00000   0.00000  -0.01691
 137       14F+3        0.01820   0.00000   0.00000   0.00000   0.01344
 138       14F-3        0.00000  -0.01311   0.00824  -0.00096   0.00000
                          26        27        28        29        30
     Eigenvalues --     0.00356   0.00343   0.00317   0.00306   0.00297
   1 1   O  1S          0.00000  -0.05999   0.00000   0.00000   0.00000
   2        2S          0.00000   0.10799   0.00000   0.00000   0.00000
   3        3S          0.00000   0.14900   0.00000   0.00000   0.00000
   4        4S          0.00000  -0.16755   0.00000   0.00000   0.00000
   5        5S          0.00000  -0.05305   0.00000   0.00000   0.00000
[...]
  61        9PX         0.00000   0.00000   1.68370   0.00000   0.00000
  62        9PY        -1.21013   1.05378   0.00000  -0.42073   0.37438
  63        9PZ         1.41659  -1.89861   0.00000   1.59340   0.36158
  64       10D 0       -0.00497  -0.03344   0.00000   0.02133   0.03002
  65       10D+1        0.00000   0.00000   0.06467   0.00000   0.00000
  66       10D-1        0.02359  -0.02292   0.00000  -0.06020  -0.02034
  67       10D+2       -0.00647  -0.03138   0.00000  -0.00713  -0.03703
  68       10D-2        0.00000   0.00000  -0.03987   0.00000   0.00000
  69       11D 0        0.07817  -0.05197   0.00000   0.01089  -0.06100
  70       11D+1        0.00000   0.00000  -0.10197   0.00000   0.00000
  71       11D-1       -0.41353   0.28181   0.00000   0.25545   0.09180
  72       11D+2       -0.19994   0.12197   0.00000   0.11115   0.17633
  73       11D-2        0.00000   0.00000   0.00584   0.00000   0.00000
  74       12D 0        1.71814  -1.91737   0.00000   0.92503   0.80015
  75       12D+1        0.00000   0.00000   1.29668   0.00000   0.00000
  76       12D-1       -3.04095   1.13344   0.00000  -0.96039  -0.29564
  77       12D+2        0.10888  -0.20390   0.00000   0.22634   0.02351
  78       12D-2        0.00000   0.00000  -1.43962   0.00000   0.00000
  79       13F 0       -0.00016   0.07265   0.00000  -0.02644  -0.00610
  80       13F+1        0.00000   0.00000   0.03520   0.00000   0.00000
  81       13F-1        0.12750  -0.07646   0.00000   0.03911   0.05297
  82       13F+2       -0.00008   0.00661   0.00000   0.05421  -0.01936
  83       13F-2        0.00000   0.00000   0.10185   0.00000   0.00000
  84       13F+3        0.00000   0.00000   0.03158   0.00000   0.00000
  85       13F-3        0.12037  -0.00014   0.00000   0.00325  -0.00138
  86       14F 0       -0.06007  -0.24256   0.00000   0.10756   0.04354
  87       14F+1        0.00000   0.00000   0.00604   0.00000   0.00000
  88       14F-1       -0.58603   0.44510   0.00000  -0.30465  -0.21216
  89       14F+2       -0.19300   0.03857   0.00000  -0.21438   0.02304
  90       14F-2        0.00000   0.00000  -0.42351   0.00000   0.00000
  91       14F+3        0.00000   0.00000  -0.22613   0.00000   0.00000
  92       14F-3       -0.36051   0.04861   0.00000  -0.04234  -0.01491
  93 3   O  1S          0.09837   0.05287   0.00000  -0.00069   0.00655
  94        2S          0.63159   0.34494   0.00000   0.01868   0.03235
  95        3S          0.12874   0.06371   0.00000   0.01829   0.00114
  96        4S        -15.03439  -5.31833   0.00000   4.04134  -2.49135
  97        5S        -10.18158  -9.17014   0.00000  -0.44659  -5.13568
  98        6PX         0.00000   0.00000  -0.02830   0.00000   0.00000
  99        6PY         0.04387  -0.00617   0.00000  -0.02154  -0.00005
 100        6PZ         0.00846  -0.00954   0.00000   0.00866  -0.00686
 101        7PX         0.00000   0.00000   0.06906   0.00000   0.00000
 102        7PY        -0.57724  -0.11036   0.00000   0.28024  -0.09364
 103        7PZ        -0.16741  -0.06671   0.00000   0.20200  -0.06582
 104        8PX         0.00000   0.00000   2.03317   0.00000   0.00000
 105        8PY        -6.16143  -1.95375   0.00000   1.60724  -1.62554
 106        8PZ        -8.99115  -5.09630   0.00000   0.14418   0.09030
 107        9PX         0.00000   0.00000   1.68370   0.00000   0.00000
 108        9PY        -1.21013  -1.05378   0.00000  -0.42073  -0.37438
 109        9PZ        -1.41659  -1.89861   0.00000  -1.59340   0.36158
 110       10D 0        0.00497  -0.03344   0.00000  -0.02133   0.03002
 111       10D+1        0.00000   0.00000   0.06467   0.00000   0.00000
 112       10D-1        0.02359   0.02292   0.00000  -0.06020   0.02034
 113       10D+2        0.00647  -0.03138   0.00000   0.00713  -0.03703
 114       10D-2        0.00000   0.00000   0.03987   0.00000   0.00000
 115       11D 0       -0.07817  -0.05197   0.00000  -0.01089  -0.06100
 116       11D+1        0.00000   0.00000  -0.10197   0.00000   0.00000
 117       11D-1       -0.41353  -0.28181   0.00000   0.25545  -0.09180
 118       11D+2        0.19994   0.12197   0.00000  -0.11115   0.17633
 119       11D-2        0.00000   0.00000  -0.00584   0.00000   0.00000
 120       12D 0       -1.71814  -1.91737   0.00000  -0.92503   0.80015
 121       12D+1        0.00000   0.00000   1.29668   0.00000   0.00000
 122       12D-1       -3.04095  -1.13344   0.00000  -0.96039   0.29564
 123       12D+2       -0.10888  -0.20390   0.00000  -0.22634   0.02351
 124       12D-2        0.00000   0.00000   1.43962   0.00000   0.00000
 125       13F 0        0.00016   0.07265   0.00000   0.02644  -0.00610
 126       13F+1        0.00000   0.00000   0.03520   0.00000   0.00000
 127       13F-1        0.12750   0.07646   0.00000   0.03911  -0.05297
 128       13F+2        0.00008   0.00661   0.00000  -0.05421  -0.01936
 129       13F-2        0.00000   0.00000  -0.10185   0.00000   0.00000
 130       13F+3        0.00000   0.00000   0.03158   0.00000   0.00000
 131       13F-3        0.12037   0.00014   0.00000   0.00325   0.00138
 132       14F 0        0.06007  -0.24256   0.00000  -0.10756   0.04354
 133       14F+1        0.00000   0.00000   0.00604   0.00000   0.00000
 134       14F-1       -0.58603  -0.44510   0.00000  -0.30465   0.21216
 135       14F+2        0.19300   0.03857   0.00000   0.21438   0.02304
 136       14F-2        0.00000   0.00000   0.42351   0.00000   0.00000
 137       14F+3        0.00000   0.00000  -0.22613   0.00000   0.00000
 138       14F-3       -0.36051  -0.04861   0.00000  -0.04234   0.01491
                         136       137       138
     Eigenvalues --     0.00000   0.00000   0.00000
   1 1   O  1S          0.00000  -0.00506   0.00000
   2        2S          0.00000  -0.04872   0.00000
   3        3S          0.00000  -0.02362   0.00000
   4        4S          0.00000   2.76777   0.00000
   5        5S          0.00000  17.85611   0.00000
   6        6PX         0.00000   0.00000   0.00000
   7        6PY        -0.00827   0.00000  -0.01052
   8        6PZ         0.00000  -0.01891   0.00000
   9        7PX         0.00000   0.00000   0.00000
  10        7PY         0.12721   0.00000   0.06017
  11        7PZ         0.00000   0.08981   0.00000
  12        8PX         0.00000   0.00000   0.00000
  13        8PY        -3.90634   0.00000  -5.76347
  14        8PZ         0.00000  -2.49634   0.00000
  15        9PX         0.00000   0.00000   0.00000
  16        9PY        -5.29450   0.00000  -6.76579
  17        9PZ         0.00000  -3.19752   0.00000
  18       10D 0        0.00000  -0.00555   0.00000
  19       10D+1        0.00000   0.00000   0.00000
  20       10D-1        0.04124   0.00000   0.00446
  21       10D+2        0.00000   0.02004   0.00000
  22       10D-2        0.00000   0.00000   0.00000
  23       11D 0        0.00000   0.04136   0.00000
  24       11D+1        0.00000   0.00000   0.00000
  25       11D-1       -0.16001   0.00000   0.05910
  26       11D+2        0.00000  -0.02844   0.00000
  27       11D-2        0.00000   0.00000   0.00000
  28       12D 0        0.00000   0.29319   0.00000
  29       12D+1        0.00000   0.00000   0.00000
  30       12D-1        1.74498   0.00000   2.09553
  31       12D+2        0.00000  -0.16295   0.00000
  32       12D-2        0.00000   0.00000   0.00000
  33       13F 0        0.00000  -0.02030   0.00000
  34       13F+1        0.00000   0.00000   0.00000
  35       13F-1       -0.00184   0.00000   0.01460
  36       13F+2        0.00000  -0.01138   0.00000
  37       13F-2        0.00000   0.00000   0.00000
  38       13F+3        0.00000   0.00000   0.00000
  39       13F-3       -0.02735   0.00000  -0.01235
  40       14F 0        0.00000   0.01719   0.00000
  41       14F+1        0.00000   0.00000   0.00000
  42       14F-1       -0.00347   0.00000  -0.10726
  43       14F+2        0.00000   0.01826   0.00000
  44       14F-2        0.00000   0.00000   0.00000
  45       14F+3        0.00000   0.00000   0.00000
  46       14F-3        0.08395   0.00000   0.07069
  47 2   O  1S          0.00523   0.00396  -0.00769
  48        2S          0.04367   0.02809  -0.07044
  49        3S          0.01729   0.01139  -0.04258
  50        4S          2.51522  -0.93611   3.37712
  51        5S         -0.42080  -8.87089  13.30345
  52        6PX         0.00000   0.00000   0.00000
  53        6PY         0.00616  -0.00618  -0.00990
  54        6PZ        -0.00812  -0.01384   0.00378
  55        7PX         0.00000   0.00000   0.00000
  56        7PY        -0.17658  -0.00492   0.03342
  57        7PZ         0.01727   0.06121  -0.00643
  58        8PX         0.00000   0.00000   0.00000
  59        8PY         0.56475   1.20272  -2.81115
  60        8PZ         1.59744  -1.03872   2.49732
  61        9PX         0.00000   0.00000   0.00000
  62        9PY         3.12864   2.74047  -2.21623
  63        9PZ         2.39540  -1.98953   2.92412
  64       10D 0        0.02521   0.00340   0.00420
  65       10D+1        0.00000   0.00000   0.00000
  66       10D-1       -0.02061   0.02625   0.00278
  67       10D+2        0.04280   0.02115  -0.00950
  68       10D-2        0.00000   0.00000   0.00000
  69       11D 0       -0.07095  -0.01343  -0.01307
  70       11D+1        0.00000   0.00000   0.00000
  71       11D-1        0.07695  -0.07978  -0.03922
  72       11D+2       -0.12039  -0.07218   0.01009
  73       11D-2        0.00000   0.00000   0.00000
  74       12D 0        1.01438   0.11248   0.29240
  75       12D+1        0.00000   0.00000   0.00000
  76       12D-1       -0.73681   0.65599  -0.94848
  77       12D+2        1.22158   0.49887  -0.47922
  78       12D-2        0.00000   0.00000   0.00000
  79       13F 0        0.02958  -0.00617   0.00922
  80       13F+1        0.00000   0.00000   0.00000
  81       13F-1        0.03144   0.01256   0.01579
  82       13F+2        0.01976   0.01656   0.00586
  83       13F-2        0.00000   0.00000   0.00000
  84       13F+3        0.00000   0.00000   0.00000
  85       13F-3        0.03988   0.02490   0.01046
  86       14F 0       -0.04550   0.04107  -0.03392
  87       14F+1        0.00000   0.00000   0.00000
  88       14F-1       -0.18810  -0.02525  -0.07262
  89       14F+2       -0.03737  -0.00303  -0.04600
  90       14F-2        0.00000   0.00000   0.00000
  91       14F+3        0.00000   0.00000   0.00000
  92       14F-3       -0.23135  -0.06125  -0.01712
  93 3   O  1S         -0.00523   0.00396   0.00769
  94        2S         -0.04367   0.02809   0.07044
  95        3S         -0.01729   0.01139   0.04258
  96        4S         -2.51522  -0.93611  -3.37712
  97        5S          0.42080  -8.87089 -13.30345
  98        6PX         0.00000   0.00000   0.00000
  99        6PY         0.00616   0.00618  -0.00990
 100        6PZ         0.00812  -0.01384  -0.00378
 101        7PX         0.00000   0.00000   0.00000
 102        7PY        -0.17658   0.00492   0.03342
 103        7PZ        -0.01727   0.06121   0.00643
 104        8PX         0.00000   0.00000   0.00000
 105        8PY         0.56475  -1.20272  -2.81115
 106        8PZ        -1.59744  -1.03872  -2.49732
 107        9PX         0.00000   0.00000   0.00000
 108        9PY         3.12864  -2.74047  -2.21623
 109        9PZ        -2.39540  -1.98953  -2.92412
 110       10D 0       -0.02521   0.00340  -0.00420
 111       10D+1        0.00000   0.00000   0.00000
 112       10D-1       -0.02061  -0.02625   0.00278
 113       10D+2       -0.04280   0.02115   0.00950
 114       10D-2        0.00000   0.00000   0.00000
 115       11D 0        0.07095  -0.01343   0.01307
 116       11D+1        0.00000   0.00000   0.00000
 117       11D-1        0.07695   0.07978  -0.03922
 118       11D+2        0.12039  -0.07218  -0.01009
 119       11D-2        0.00000   0.00000   0.00000
 120       12D 0       -1.01438   0.11248  -0.29240
 121       12D+1        0.00000   0.00000   0.00000
 122       12D-1       -0.73681  -0.65599  -0.94848
 123       12D+2       -1.22158   0.49887   0.47922
 124       12D-2        0.00000   0.00000   0.00000
 125       13F 0       -0.02958  -0.00617  -0.00922
 126       13F+1        0.00000   0.00000   0.00000
 127       13F-1        0.03144  -0.01256   0.01579
 128       13F+2       -0.01976   0.01656  -0.00586
 129       13F-2        0.00000   0.00000   0.00000
 130       13F+3        0.00000   0.00000   0.00000
 131       13F-3        0.03988  -0.02490   0.01046
 132       14F 0        0.04550   0.04107   0.03392
 133       14F+1        0.00000   0.00000   0.00000
 134       14F-1       -0.18810   0.02525  -0.07262
 135       14F+2        0.03737  -0.00303   0.04600
 136       14F-2        0.00000   0.00000   0.00000
 137       14F+3        0.00000   0.00000   0.00000
 138       14F-3       -0.23135   0.06125  -0.01712
          Condensed to atoms (all electrons):
              1          2          3
     1  O    8.326466  -0.252050  -0.252050
     2  O   -0.252050   8.381955  -0.041088
     3  O   -0.252050  -0.041088   8.381955
 Mulliken atomic charges:
              1
     1  O    0.177633
     2  O   -0.088817
     3  O   -0.088817
 Sum of Mulliken atomic charges =   0.00000
 Mulliken charges with hydrogens summed into heavy atoms:
              1
     1  O    0.177633
     2  O   -0.088817
     3  O   -0.088817
 Sum of Mulliken charges with hydrogens summed into heavy atoms =   0.00000
          Atomic-Atomic Spin Densities.
              1          2          3
     1  O    0.616884  -0.123258  -0.123258
     2  O   -0.123258   0.993983  -0.055909
     3  O   -0.123258  -0.055909   0.993983
 Mulliken atomic spin densities:
              1
     1  O    0.370369
     2  O    0.814816
     3  O    0.814816
 Sum of Mulliken atomic spin densities =   2.00000
 Electronic spatial extent (au):  <R**2>=            105.5806
 Charge=              0.0000 electrons
 Dipole moment (field-independent basis, Debye):
    X=              0.0000    Y=              0.0000    Z=              0.8208  Tot=              0.8208
 Quadrupole moment (field-independent basis, Debye-Ang):
   XX=            -15.7923   YY=            -15.8481   ZZ=            -15.5999
   XY=              0.0000   XZ=              0.0000   YZ=              0.0000
 Traceless Quadrupole moment (field-independent basis, Debye-Ang):
   XX=             -0.0455   YY=             -0.1014   ZZ=              0.1469
   XY=              0.0000   XZ=              0.0000   YZ=              0.0000
 Octapole moment (field-independent basis, Debye-Ang**2):
  XXX=              0.0000  YYY=              0.0000  ZZZ=              1.0256  XYY=              0.0000
  XXY=              0.0000  XXZ=              0.5282  XZZ=              0.0000  YZZ=              0.0000
  YYZ=              0.2805  XYZ=              0.0000
 Hexadecapole moment (field-independent basis, Debye-Ang**3):
 XXXX=            -12.2487 YYYY=            -71.2074 ZZZZ=            -27.3610 XXXY=              0.0000
 XXXZ=              0.0000 YYYX=              0.0000 YYYZ=              0.0000 ZZZX=              0.0000
 ZZZY=              0.0000 XXYY=            -14.9477 XXZZ=             -6.6909 YYZZ=            -15.6291
 XXYZ=              0.0000 YYXZ=              0.0000 ZZXY=              0.0000
 N-N= 6.849723061909D+01 E-N=-9.881061332330D+02  KE= 3.337253120823D+02
 Symmetry A1   KE= 2.081880621770D+02
 Symmetry A2   KE= 7.488241844846D+00
 Symmetry B1   KE= 9.903541921502D+00
 Symmetry B2   KE= 1.081454661389D+02
                          Isotropic Fermi Contact Couplings
        Atom                 a.u.       MegaHertz       Gauss      10(-4) cm-1
     1  O(17)              0.02656      -8.04910      -2.87212      -2.68489
     2  O(17)              0.05484     -16.62161      -5.93100      -5.54437
     3  O(17)              0.05484     -16.62161      -5.93100      -5.54437
 --------------------------------------------------------
       Center         ----  Spin Dipole Couplings  ----
                      3XX-RR        3YY-RR        3ZZ-RR
 --------------------------------------------------------
     1   Atom        2.427818     -1.159013     -1.268805
     2   Atom        0.191439      0.687990     -0.879429
     3   Atom        0.191439      0.687990     -0.879429
 --------------------------------------------------------
                        XY            XZ            YZ
 --------------------------------------------------------
     1   Atom        0.000000      0.000000      0.000000
     2   Atom        0.000000      0.000000      1.690483
     3   Atom        0.000000      0.000000     -1.690483
 --------------------------------------------------------


 ---------------------------------------------------------------------------------
              Anisotropic Spin Dipole Couplings in Principal Axis System
 ---------------------------------------------------------------------------------

       Atom             a.u.   MegaHertz   Gauss  10(-4) cm-1        Axes

              Baa    -1.2688    91.810    32.760    30.624  0.0000  0.0000  1.0000
     1 O(17)  Bbb    -1.1590    83.865    29.925    27.974  0.0000  1.0000  0.0000
              Bcc     2.4278  -175.675   -62.685   -58.599  1.0000  0.0000  0.0000
 
              Baa    -1.9590   141.754    50.581    47.284  0.0000 -0.5382  0.8428
     2 O(17)  Bbb     0.1914   -13.852    -4.943    -4.621  1.0000  0.0000  0.0000
              Bcc     1.7676  -127.902   -45.639   -42.663  0.0000  0.8428  0.5382
 
              Baa    -1.9590   141.754    50.581    47.284  0.0000  0.5382  0.8428
     3 O(17)  Bbb     0.1914   -13.852    -4.943    -4.621  1.0000  0.0000  0.0000
              Bcc     1.7676  -127.902   -45.639   -42.663  0.0000  0.8428 -0.5382
 

 ---------------------------------------------------------------------------------

 B after Tr=     0.000000    0.000000    0.000000
         Rot=    1.000000    0.000000    0.000000    0.000000 Ang=   0.00 deg.
 Final structure in terms of initial Z-matrix:
 O
 O,1,B1
 O,1,B2,2,A1
      Variables:
 B1=1.31764472
 B2=1.31764472
 A1=97.51534867
 1\1\GINC-STEELE-A138\FOpt\UCCSD-Full\Aug-CC-pVTZ\O3(3)\TMANZ\06-Oct-20
 12\0\\# opt CCSD(full,SaveAmplitudes)/aug-cc-pVTZ geom=connectivity sc
 f=(fermi,maxcycle=400) # density=current output=wfx\\Title Card Requir
 ed\\0,3\O,0.0052669989,0.,0.0045785323\O,0.0108398035,0.,1.3222114717\
 O,1.3108524096,0.,-0.1732819593\\Version=EM64L-G09RevC.01\State=3-A2\H
 F=-224.3521766\MP2=-225.1060662\MP3=-225.0916431\MP4D=-225.1122062\MP4
 DQ=-225.0876137\PUHF=-224.3655128\PMP2-0=-225.1156119\PMP3-0=-225.0970
 99\MP4SDQ=-225.1070527\CCSD=-225.1090482\S2=2.079433\S2-1=2.033252\S2A
 =2.002752\RMSD=6.764e-09\RMSF=6.597e-05\Dipole=0.,0.,0.3229106\Quadrup
 ole=-0.0338211,-0.075372,0.1091931,0.,0.,0.\PG=C02V [C2(O1),SGV(O2)]\\
 @

 Writing a WFNX file to ozone_triplet_CCSD.wfx.


 The juvenile sea squirt wanders through the sea searching
 for a suitable rock or hunk of coral to cling to and make
 its home for life.  For this task it has a rudimentary
 nervous system.  When it finds its spot and takes root, it
 doesn't need its brain any more so it eats it.
 It's rather like getting tenure.

                               -- source unknown
 Job cpu time:  1 days  1 hours 29 minutes 37.5 seconds.
 File lengths (MBytes):  RWF=   5849 Int=      0 D2E=      0 Chk=     17 Scr=      1
 Normal termination of Gaussian 09 at Sat Oct  6 10:24:04 2012.
real 28249.06
user 89724.04
sys 2053.64
Machine:
steele-a138
steele-a138
steele-a138
steele-a138
