periodic system                         
   5.65000000000000     
     0.000000    0.500787    0.500787
     0.500787    0.000000    0.500787
     0.500787    0.500787    0.000000
   1   1
Direct
  0.000000  0.000000  0.000000
  0.500000  0.500000  0.500000
 
   56   56   56
 0.91715882281E+02 0.62387859338E+01 0.57095392384E+01 0.49185812560E+01 0.29895344047E+01
 0.14453270877E+01 0.55289221814E+00 0.14647223845E+00 0.28889892292E-01 0.61429232561E-01
 0.16144759133E+00 0.28433615241E+00 0.40846166179E+00 0.52503749903E+00 0.63180475467E+00
 0.72934783337E+00 0.81912972648E+00 0.90267180605E+00 0.98123235147E+00 0.10554764523E+01
 0.11246973582E+01 0.11875244365E+01 0.12430869240E+01 0.12909113747E+01 0.13307097229E+01
 0.13622103599E+01 0.13850883242E+01 0.13989983202E+01 0.14036693510E+01 0.13989983202E+01
 0.13850883242E+01 0.13622103599E+01 0.13307097229E+01 0.12909113747E+01 0.12430869240E+01
 0.11875244365E+01 0.11246973582E+01 0.10554764523E+01 0.98123235147E+00 0.90267180605E+00
 0.81912972648E+00 0.72934783337E+00 0.63180475467E+00 0.52503749903E+00 0.40846166179E+00
 0.28433615241E+00 0.16144759133E+00 0.61429232561E-01 0.28889892292E-01 0.14647223845E+00
 0.55289221814E+00 0.14453270877E+01 0.29895344047E+01 0.49185812560E+01 0.57095392384E+01
 0.62387859338E+01 0.62387859338E+01 0.54814165583E+01 0.54533285171E+01 0.37522231414E+01
 0.20084690109E+01 0.86641135971E+00 0.28024262377E+00 0.56653783522E-01 0.34688030695E-01
 0.11102278921E+00 0.22688950936E+00 0.35196902746E+00 0.47259365663E+00 0.58405628029E+00
 0.68593151929E+00 0.77940277260E+00 0.86600384618E+00 0.94713533828E+00 0.10237894948E+01
 0.10960107845E+01 0.11624800643E+01 0.12220594468E+01 0.12740958301E+01 0.13182223104E+01
 0.13541599355E+01 0.13815971198E+01 0.14001762838E+01 0.14095664829E+01 0.14095664829E+01
 0.14001762838E+01 0.13815971198E+01 0.13541599355E+01 0.13182223104E+01 0.12740958301E+01
 0.12220594468E+01 0.11624800643E+01 0.10960107845E+01 0.10237894948E+01 0.94713533828E+00
 0.86600384618E+00 0.77940277260E+00 0.68593151929E+00 0.58405628029E+00 0.47259365663E+00
 0.35196902746E+00 0.22688950936E+00 0.11102278921E+00 0.34688030695E-01 0.56653783522E-01
 0.28024262377E+00 0.86641135971E+00 0.20084690109E+01 0.37522231414E+01 0.54533285171E+01
 0.54814165583E+01 0.62387859338E+01 0.57095392384E+01 0.54533285171E+01 0.40338239248E+01
 0.23596963075E+01 0.11226148180E+01 0.41703850140E+00 0.10390146900E+00 0.27790162513E-01
 0.76503951019E-01 0.18133703329E+00 0.30451051709E+00 0.42753118958E+00 0.54293993006E+00
 0.64896967879E+00 0.74629795441E+00 0.83634876737E+00 0.92056777849E+00 0.10001227979E+01
 0.10755477675E+01 0.11459781619E+01 0.12100265531E+01 0.12668064203E+01 0.13158057530E+01
 0.13566816797E+01 0.13891014865E+01 0.14126827734E+01 0.14270343385E+01 0.14318559004E+01
 0.14270343385E+01 0.14126827734E+01 0.13891014865E+01 0.13566816797E+01 0.13158057530E+01
 0.12668064203E+01 0.12100265531E+01 0.11459781619E+01 0.10755477675E+01 0.10001227979E+01
 0.92056777849E+00 0.83634876737E+00 0.74629795441E+00 0.64896967879E+00 0.54293993006E+00
 0.42753118958E+00 0.30451051709E+00 0.18133703329E+00 0.76503951019E-01 0.27790162513E-01
 0.10390146900E+00 0.41703850140E+00 0.11226148180E+01 0.23596963075E+01 0.40338239248E+01
 0.54533285171E+01 0.57095392384E+01 0.54814165583E+01 0.49185812560E+01 0.37522231414E+01
 0.23596963075E+01 0.12221287275E+01 0.50431093593E+00 0.14752196032E+00 0.32546625735E-01
 0.56197125243E-01 0.14831574670E+00 0.26716279840E+00 0.39064160902E+00 0.50877341645E+00
 0.61833460596E+00 0.71931643547E+00 0.81290608499E+00 0.90050735522E+00 0.98335630797E+00
 0.10622389802E+01 0.11368611246E+01 0.12057600326E+01 0.12677874376E+01 0.13222325825E+01
 0.13686312164E+01 0.14065848704E+01 0.14356607412E+01 0.14553962551E+01 0.14653844419E+01
 0.14653844419E+01 0.14553962551E+01 0.14356607412E+01 0.14065848704E+01 0.13686312164E+01
 0.13222325825E+01 0.12677874376E+01 0.12057600326E+01 0.11368611246E+01 0.10622389802E+01
 0.98335630797E+00 0.90050735522E+00 0.81290608499E+00 0.71931643547E+00 0.61833460596E+00
 0.50877341645E+00 0.39064160902E+00 0.26716279840E+00 0.14831574670E+00 0.56197125243E-01
 0.32546625735E-01 0.14752196032E+00 0.50431093593E+00 0.12221287275E+01 0.23596963075E+01
 0.37522231414E+01 0.49185812560E+01 0.54533285171E+01 0.54533285171E+01 0.29895344047E+01
 0.20084690109E+01 0.11226148180E+01 0.50431093593E+00 0.16517072180E+00 0.38573452186E-01
 0.46500680014E-01 0.12734132900E+00 0.24049796354E+00 0.36255699761E+00 0.48187420727E+00
 0.59393553793E+00 0.69799065371E+00 0.79488413083E+00 0.88589639749E+00 0.97224808956E+00
 0.10548328049E+01 0.11337839637E+01 0.12078166941E+01 0.12755254807E+01 0.13359664618E+01
 0.13885037974E+01 0.14326250843E+01 0.14678119858E+01 0.14935093996E+01 0.15091889308E+01
 0.15144630832E+01 0.15091889308E+01 0.14935093996E+01 0.14678119858E+01 0.14326250843E+01
 0.13885037974E+01 0.13359664618E+01 0.12755254807E+01 0.12078166941E+01 0.11337839637E+01
 0.10548328049E+01 0.97224808956E+00 0.88589639749E+00 0.79488413083E+00 0.69799065371E+00
 0.59393553793E+00 0.48187420727E+00 0.36255699761E+00 0.24049796354E+00 0.12734132900E+00
 0.46500680014E-01 0.38573452186E-01 0.16517072180E+00 0.50431093593E+00 0.11226148180E+01
 0.20084690109E+01 0.29895344047E+01 0.37522231414E+01 0.40338239248E+01 0.37522231414E+01
 0.14453270877E+01 0.86641135971E+00 0.41703850140E+00 0.14752196032E+00 0.38573452186E-01
 0.43778453117E-01 0.11729495258E+00 0.22460618968E+00 0.34369000385E+00 0.46249486385E+00
 0.57570540343E+00 0.68190270534E+00 0.78153445952E+00 0.87569025592E+00 0.96551399518E+00
 0.10519184412E+01 0.11352548197E+01 0.12145789175E+01 0.12882903300E+01 0.13552004751E+01
 0.14144656851E+01 0.14654148647E+01 0.15074044579E+01 0.15397579809E+01 0.15618043736E+01
 0.15729868672E+01 0.15729868672E+01 0.15618043736E+01 0.15397579809E+01 0.15074044579E+01
 0.14654148647E+01 0.14144656851E+01 0.13552004751E+01 0.12882903300E+01 0.12145789175E+01
 0.11352548197E+01 0.10519184412E+01 0.96551399518E+00 0.87569025592E+00 0.78153445952E+00
 0.68190270534E+00 0.57570540343E+00 0.46249486385E+00 0.34369000385E+00 0.22460618968E+00
 0.11729495258E+00 0.43778453117E-01 0.38573452186E-01 0.14752196032E+00 0.41703850140E+00
 0.86641135971E+00 0.14453270877E+01 0.20084690109E+01 0.23596963075E+01 0.23596963075E+01
 0.20084690109E+01 0.55289221814E+00 0.28024262377E+00 0.10390146900E+00 0.32546625735E-01
 0.46500680014E-01 0.11729495258E+00 0.21934144007E+00 0.33422300229E+00 0.45081227388E+00
 0.56359035641E+00 0.67069204934E+00 0.77218422196E+00 0.86891925068E+00 0.96191012573E+00
 0.10520235389E+01 0.11397019409E+01 0.12243192479E+01 0.13041988255E+01 0.13779187578E+01
 0.14444098298E+01 0.15028073422E+01 0.15523040791E+01 0.15920693342E+01 0.16212633357E+01
 0.16391346762E+01 0.16451553639E+01 0.16391346762E+01 0.16212633357E+01 0.15920693342E+01
 0.15523040791E+01 0.15028073422E+01 0.14444098298E+01 0.13779187578E+01 0.13041988255E+01
 0.12243192479E+01 0.11397019409E+01 0.10520235389E+01 0.96191012573E+00 0.86891925068E+00
 0.77218422196E+00 0.67069204934E+00 0.56359035641E+00 0.45081227388E+00 0.33422300229E+00
 0.21934144007E+00 0.11729495258E+00 0.46500680014E-01 0.32546625735E-01 0.10390146900E+00
 0.28024262377E+00 0.55289221814E+00 0.86641135971E+00 0.11226148180E+01 0.12221287275E+01
 0.11226148180E+01 0.86641135971E+00 0.14647223845E+00 0.56653783522E-01 0.27790162513E-01
 0.56197125243E-01 0.12734132900E+00 0.22460618968E+00 0.33422300229E+00 0.44690845186E+00
 0.55754640115E+00 0.66408406305E+00 0.76628265798E+00 0.86474405735E+00 0.96031570136E+00
 0.10537771299E+01 0.11455663893E+01 0.12352911730E+01 0.13213060321E+01 0.14019875914E+01
 0.14760438539E+01 0.15423965226E+01 0.16000433998E+01 0.16479674214E+01 0.16851320117E+01
 0.17105645860E+01 0.17234950084E+01 0.17234950084E+01 0.17105645860E+01 0.16851320117E+01
 0.16479674214E+01 0.16000433998E+01 0.15423965226E+01 0.14760438539E+01 0.14019875914E+01
 0.13213060321E+01 0.12352911730E+01 0.11455663893E+01 0.10537771299E+01 0.96031570136E+00
 0.86474405735E+00 0.76628265798E+00 0.66408406305E+00 0.55754640115E+00 0.44690845186E+00
 0.33422300229E+00 0.22460618968E+00 0.12734132900E+00 0.56197125243E-01 0.27790162513E-01
 0.56653783522E-01 0.14647223845E+00 0.28024262377E+00 0.41703850140E+00 0.50431093593E+00
 0.50431093593E+00 0.41703850140E+00 0.28024262377E+00 0.28889892292E-01 0.34688030695E-01
 0.76503951019E-01 0.14831574670E+00 0.24049796354E+00 0.34369000385E+00 0.45081227388E+00
 0.55754640115E+00 0.66190165985E+00 0.76343479441E+00 0.86251406026E+00 0.95980696228E+00
 0.10559728688E+01 0.11514064395E+01 0.12458396917E+01 0.13377193856E+01 0.14252736465E+01
 0.15070102369E+01 0.15816352055E+01 0.16479322992E+01 0.17046718060E+01 0.17505939043E+01
 0.17844792793E+01 0.18052857775E+01 0.18123051230E+01 0.18052857775E+01 0.17844792793E+01
 0.17505939043E+01 0.17046718060E+01 0.16479322992E+01 0.15816352055E+01 0.15070102369E+01
 0.14252736465E+01 0.13377193856E+01 0.12458396917E+01 0.11514064395E+01 0.10559728688E+01
 0.95980696228E+00 0.86251406026E+00 0.76343479441E+00 0.66190165985E+00 0.55754640115E+00
 0.45081227388E+00 0.34369000385E+00 0.24049796354E+00 0.14831574670E+00 0.76503951019E-01
 0.34688030695E-01 0.28889892292E-01 0.56653783522E-01 0.10390146900E+00 0.14752196032E+00
 0.16517072180E+00 0.14752196032E+00 0.10390146900E+00 0.56653783522E-01 0.61429232561E-01
 0.11102278921E+00 0.18133703329E+00 0.26716279840E+00 0.36255699761E+00 0.46249486385E+00
 0.56359035641E+00 0.66408406305E+00 0.76343479441E+00 0.86181776259E+00 0.95972410574E+00
 0.10576830855E+01 0.11560263548E+01 0.12545192813E+01 0.13517244090E+01 0.14457789411E+01
 0.15350296668E+01 0.16179833857E+01 0.16932064633E+01 0.17592408891E+01 0.18145830697E+01
 0.18577452044E+01 0.18873880009E+01 0.19024877307E+01 0.19024877307E+01 0.18873880009E+01
 0.18577452044E+01 0.18145830697E+01 0.17592408891E+01 0.16932064633E+01 0.16179833857E+01
 0.15350296668E+01 0.14457789411E+01 0.13517244090E+01 0.12545192813E+01 0.11560263548E+01
 0.10576830855E+01 0.95972410574E+00 0.86181776259E+00 0.76343479441E+00 0.66408406305E+00
 0.56359035641E+00 0.46249486385E+00 0.36255699761E+00 0.26716279840E+00 0.18133703329E+00
 0.11102278921E+00 0.61429232561E-01 0.34688030695E-01 0.27790162513E-01 0.32546625735E-01
 0.38573452186E-01 0.38573452186E-01 0.32546625735E-01 0.27790162513E-01 0.34688030695E-01
 0.16144759133E+00 0.22688950936E+00 0.30451051709E+00 0.39064160902E+00 0.48187420727E+00
 0.57570540343E+00 0.67069204934E+00 0.76628265798E+00 0.86251406026E+00 0.95972410574E+00
 0.10583202415E+01 0.11585595838E+01 0.12602047647E+01 0.13619073753E+01 0.14617774178E+01
 0.15580521758E+01 0.16490722095E+01 0.17332001841E+01 0.18087482821E+01 0.18739586516E+01
 0.19270603173E+01 0.19663984997E+01 0.19906074383E+01 0.19987827113E+01 0.19906074383E+01
 0.19663984997E+01 0.19270603173E+01 0.18739586516E+01 0.18087482821E+01 0.17332001841E+01
 0.16490722095E+01 0.15580521758E+01 0.14617774178E+01 0.13619073753E+01 0.12602047647E+01
 0.11585595838E+01 0.10583202415E+01 0.95972410574E+00 0.86251406026E+00 0.76628265798E+00
 0.67069204934E+00 0.57570540343E+00 0.48187420727E+00 0.39064160902E+00 0.30451051709E+00
 0.22688950936E+00 0.16144759133E+00 0.11102278921E+00 0.76503951019E-01 0.56197125243E-01
 0.46500680014E-01 0.43778453117E-01 0.46500680014E-01 0.56197125243E-01 0.76503951019E-01
 0.11102278921E+00 0.28433615241E+00 0.35196902746E+00 0.42753118958E+00 0.50877341645E+00
 0.59393553793E+00 0.68190270534E+00 0.77218422196E+00 0.86474405735E+00 0.95980696228E+00
 0.10576830855E+01 0.11585595838E+01 0.12621815943E+01 0.13672608693E+01 0.14719378153E+01
 0.15743990109E+01 0.16728649175E+01 0.17655242278E+01 0.18504735363E+01 0.19257034057E+01
 0.19891552385E+01 0.20388493481E+01 0.20730615206E+01 0.20905099149E+01 0.20905099149E+01
 0.20730615206E+01 0.20388493481E+01 0.19891552385E+01 0.19257034057E+01 0.18504735363E+01
 0.17655242278E+01 0.16728649175E+01 0.15743990109E+01 0.14719378153E+01 0.13672608693E+01
 0.12621815943E+01 0.11585595838E+01 0.10576830855E+01 0.95980696228E+00 0.86474405735E+00
 0.77218422196E+00 0.68190270534E+00 0.59393553793E+00 0.50877341645E+00 0.42753118958E+00
 0.35196902746E+00 0.28433615241E+00 0.22688950936E+00 0.18133703329E+00 0.14831574670E+00
 0.12734132900E+00 0.11729495258E+00 0.11729495258E+00 0.12734132900E+00 0.14831574670E+00
 0.18133703329E+00 0.22688950936E+00 0.40846166179E+00 0.47259365663E+00 0.54293993006E+00
 0.61833460596E+00 0.69799065371E+00 0.78153445952E+00 0.86891925068E+00 0.96031570136E+00
 0.10559728688E+01 0.11560263548E+01 0.12602047647E+01 0.13672608693E+01 0.14754202745E+01
 0.15828806535E+01 0.16877975746E+01 0.17882290299E+01 0.18820856633E+01 0.19671238852E+01
 0.20410057135E+01 0.21014280736E+01 0.21463029779E+01 0.21739550661E+01 0.21832979174E+01
 0.21739550661E+01 0.21463029779E+01 0.21014280736E+01 0.20410057135E+01 0.19671238852E+01
 0.18820856633E+01 0.17882290299E+01 0.16877975746E+01 0.15828806535E+01 0.14754202745E+01
 0.13672608693E+01 0.12602047647E+01 0.11560263548E+01 0.10559728688E+01 0.96031570136E+00
 0.86891925068E+00 0.78153445952E+00 0.69799065371E+00 0.61833460596E+00 0.54293993006E+00
 0.47259365663E+00 0.40846166179E+00 0.35196902746E+00 0.30451051709E+00 0.26716279840E+00
 0.24049796354E+00 0.22460618968E+00 0.21934144007E+00 0.22460618968E+00 0.24049796354E+00
 0.26716279840E+00 0.30451051709E+00 0.35196902746E+00 0.52503749903E+00 0.58405628029E+00
 0.64896967879E+00 0.71931643547E+00 0.79488413083E+00 0.87569025592E+00 0.96191012573E+00
 0.10537771299E+01 0.11514064395E+01 0.12545192813E+01 0.13619073753E+01 0.14719378153E+01
 0.15828806535E+01 0.16928869120E+01 0.17999374984E+01 0.19018005230E+01 0.19960305831E+01
 0.20800326348E+01 0.21511942509E+01 0.22070701652E+01 0.22455886365E+01 0.22652440606E+01
 0.22652440606E+01 0.22455886365E+01 0.22070701652E+01 0.21511942509E+01 0.20800326348E+01
 0.19960305831E+01 0.19018005230E+01 0.17999374984E+01 0.16928869120E+01 0.15828806535E+01
 0.14719378153E+01 0.13619073753E+01 0.12545192813E+01 0.11514064395E+01 0.10537771299E+01
 0.96191012573E+00 0.87569025592E+00 0.79488413083E+00 0.71931643547E+00 0.64896967879E+00
 0.58405628029E+00 0.52503749903E+00 0.47259365663E+00 0.42753118958E+00 0.39064160902E+00
 0.36255699761E+00 0.34369000385E+00 0.33422300229E+00 0.33422300229E+00 0.34369000385E+00
 0.36255699761E+00 0.39064160902E+00 0.42753118958E+00 0.47259365663E+00 0.63180475467E+00
 0.68593151929E+00 0.74629795441E+00 0.81290608499E+00 0.88589639749E+00 0.96551399518E+00
 0.10520235389E+01 0.11455663893E+01 0.12458396917E+01 0.13517244090E+01 0.14617774178E+01
 0.15743990109E+01 0.16877975746E+01 0.17999374984E+01 0.19084991789E+01 0.20108817465E+01
 0.21042699665E+01 0.21857696943E+01 0.22525973269E+01 0.23022945057E+01 0.23329341797E+01
 0.23432880053E+01 0.23329341797E+01 0.23022945057E+01 0.22525973269E+01 0.21857696943E+01
 0.21042699665E+01 0.20108817465E+01 0.19084991789E+01 0.17999374984E+01 0.16877975746E+01
 0.15743990109E+01 0.14617774178E+01 0.13517244090E+01 0.12458396917E+01 0.11455663893E+01
 0.10520235389E+01 0.96551399518E+00 0.88589639749E+00 0.81290608499E+00 0.74629795441E+00
 0.68593151929E+00 0.63180475467E+00 0.58405628029E+00 0.54293993006E+00 0.50877341645E+00
 0.48187420727E+00 0.46249486385E+00 0.45081227388E+00 0.44690845186E+00 0.45081227388E+00
 0.46249486385E+00 0.48187420727E+00 0.50877341645E+00 0.54293993006E+00 0.58405628029E+00
 0.72934783337E+00 0.77940277260E+00 0.83634876737E+00 0.90050735522E+00 0.97224808956E+00
 0.10519184412E+01 0.11397019409E+01 0.12352911730E+01 0.13377193856E+01 0.14457789411E+01
 0.15580521758E+01 0.16728649175E+01 0.17882290299E+01 0.19018005230E+01 0.20108817465E+01
 0.21124884161E+01 0.22034866083E+01 0.22807865219E+01 0.23415652879E+01 0.23834853902E+01
 0.24048791056E+01 0.24048791056E+01 0.23834853902E+01 0.23415652879E+01 0.22807865219E+01
 0.22034866083E+01 0.21124884161E+01 0.20108817465E+01 0.19018005230E+01 0.17882290299E+01
 0.16728649175E+01 0.15580521758E+01 0.14457789411E+01 0.13377193856E+01 0.12352911730E+01
 0.11397019409E+01 0.10519184412E+01 0.97224808956E+00 0.90050735522E+00 0.83634876737E+00
 0.77940277260E+00 0.72934783337E+00 0.68593151929E+00 0.64896967879E+00 0.61833460596E+00
 0.59393553793E+00 0.57570540343E+00 0.56359035641E+00 0.55754640115E+00 0.55754640115E+00
 0.56359035641E+00 0.57570540343E+00 0.59393553793E+00 0.61833460596E+00 0.64896967879E+00
 0.68593151929E+00 0.81912972648E+00 0.86600384618E+00 0.92056777849E+00 0.98335630797E+00
 0.10548328049E+01 0.11352548197E+01 0.12243192479E+01 0.13213060321E+01 0.14252736465E+01
 0.15350296668E+01 0.16490722095E+01 0.17655242278E+01 0.18820856633E+01 0.19960305831E+01
 0.21042699665E+01 0.22034866083E+01 0.22903307748E+01 0.23616500141E+01 0.24147194956E+01
 0.24474423688E+01 0.24584998814E+01 0.24474423688E+01 0.24147194956E+01 0.23616500141E+01
 0.22903307748E+01 0.22034866083E+01 0.21042699665E+01 0.19960305831E+01 0.18820856633E+01
 0.17655242278E+01 0.16490722095E+01 0.15350296668E+01 0.14252736465E+01 0.13213060321E+01
 0.12243192479E+01 0.11352548197E+01 0.10548328049E+01 0.98335630797E+00 0.92056777849E+00
 0.86600384618E+00 0.81912972648E+00 0.77940277260E+00 0.74629795441E+00 0.71931643547E+00
 0.69799065371E+00 0.68190270534E+00 0.67069204934E+00 0.66408406305E+00 0.66190165985E+00
 0.66408406305E+00 0.67069204934E+00 0.68190270534E+00 0.69799065371E+00 0.71931643547E+00
 0.74629795441E+00 0.77940277260E+00 0.90267180605E+00 0.94713533828E+00 0.10001227979E+01
 0.10622389802E+01 0.11337839637E+01 0.12145789175E+01 0.13041988255E+01 0.14019875914E+01
 0.15070102369E+01 0.16179833857E+01 0.17332001841E+01 0.18504735363E+01 0.19671238852E+01
 0.20800326348E+01 0.21857696943E+01 0.22807865219E+01 0.23616500141E+01 0.24252836529E+01
 0.24691836708E+01 0.24915879268E+01 0.24915879268E+01 0.24691836708E+01 0.24252836529E+01
 0.23616500141E+01 0.22807865219E+01 0.21857696943E+01 0.20800326348E+01 0.19671238852E+01
 0.18504735363E+01 0.17332001841E+01 0.16179833857E+01 0.15070102369E+01 0.14019875914E+01
 0.13041988255E+01 0.12145789175E+01 0.11337839637E+01 0.10622389802E+01 0.10001227979E+01
 0.94713533828E+00 0.90267180605E+00 0.86600384618E+00 0.83634876737E+00 0.81290608499E+00
 0.79488413083E+00 0.78153445952E+00 0.77218422196E+00 0.76628265798E+00 0.76343479441E+00
 0.76343479441E+00 0.76628265798E+00 0.77218422196E+00 0.78153445952E+00 0.79488413083E+00
 0.81290608499E+00 0.83634876737E+00 0.86600384618E+00 0.98123235147E+00 0.10237894948E+01
 0.10755477675E+01 0.11368611246E+01 0.12078166941E+01 0.12882903300E+01 0.13779187578E+01
 0.14760438539E+01 0.15816352055E+01 0.16932064633E+01 0.18087482821E+01 0.19257034057E+01
 0.20410057135E+01 0.21511942509E+01 0.22525973269E+01 0.23415652879E+01 0.24147194956E+01
 0.24691836708E+01 0.25027720849E+01 0.25141223510E+01 0.25027720849E+01 0.24691836708E+01
 0.24147194956E+01 0.23415652879E+01 0.22525973269E+01 0.21511942509E+01 0.20410057135E+01
 0.19257034057E+01 0.18087482821E+01 0.16932064633E+01 0.15816352055E+01 0.14760438539E+01
 0.13779187578E+01 0.12882903300E+01 0.12078166941E+01 0.11368611246E+01 0.10755477675E+01
 0.10237894948E+01 0.98123235147E+00 0.94713533828E+00 0.92056777849E+00 0.90050735522E+00
 0.88589639749E+00 0.87569025592E+00 0.86891925068E+00 0.86474405735E+00 0.86251406026E+00
 0.86181776259E+00 0.86251406026E+00 0.86474405735E+00 0.86891925068E+00 0.87569025592E+00
 0.88589639749E+00 0.90050735522E+00 0.92056777849E+00 0.94713533828E+00 0.10554764523E+01
 0.10960107845E+01 0.11459781619E+01 0.12057600326E+01 0.12755254807E+01 0.13552004751E+01
 0.14444098298E+01 0.15423965226E+01 0.16479322992E+01 0.17592408891E+01 0.18739586516E+01
 0.19891552385E+01 0.21014280736E+01 0.22070701652E+01 0.23022945057E+01 0.23834853902E+01
 0.24474423688E+01 0.24915879268E+01 0.25141223510E+01 0.25141223510E+01 0.24915879268E+01
 0.24474423688E+01 0.23834853902E+01 0.23022945057E+01 0.22070701652E+01 0.21014280736E+01
 0.19891552385E+01 0.18739586516E+01 0.17592408891E+01 0.16479322992E+01 0.15423965226E+01
 0.14444098298E+01 0.13552004751E+01 0.12755254807E+01 0.12057600326E+01 0.11459781619E+01
 0.10960107845E+01 0.10554764523E+01 0.10237894948E+01 0.10001227979E+01 0.98335630797E+00
 0.97224808956E+00 0.96551399518E+00 0.96191012573E+00 0.96031570136E+00 0.95980696228E+00
 0.95972410574E+00 0.95972410574E+00 0.95980696228E+00 0.96031570136E+00 0.96191012573E+00
 0.96551399518E+00 0.97224808956E+00 0.98335630797E+00 0.10001227979E+01 0.10237894948E+01
 0.11246973582E+01 0.11624800643E+01 0.12100265531E+01 0.12677874376E+01 0.13359664618E+01
 0.14144656851E+01 0.15028073422E+01 0.16000433998E+01 0.17046718060E+01 0.18145830697E+01
 0.19270603173E+01 0.20388493481E+01 0.21463029779E+01 0.22455886365E+01 0.23329341797E+01
 0.24048791056E+01 0.24584998814E+01 0.24915879268E+01 0.25027720849E+01 0.24915879268E+01
 0.24584998814E+01 0.24048791056E+01 0.23329341797E+01 0.22455886365E+01 0.21463029779E+01
 0.20388493481E+01 0.19270603173E+01 0.18145830697E+01 0.17046718060E+01 0.16000433998E+01
 0.15028073422E+01 0.14144656851E+01 0.13359664618E+01 0.12677874376E+01 0.12100265531E+01
 0.11624800643E+01 0.11246973582E+01 0.10960107845E+01 0.10755477675E+01 0.10622389802E+01
 0.10548328049E+01 0.10519184412E+01 0.10520235389E+01 0.10537771299E+01 0.10559728688E+01
 0.10576830855E+01 0.10583202415E+01 0.10576830855E+01 0.10559728688E+01 0.10537771299E+01
 0.10520235389E+01 0.10519184412E+01 0.10548328049E+01 0.10622389802E+01 0.10755477675E+01
 0.10960107845E+01 0.11875244365E+01 0.12220594468E+01 0.12668064203E+01 0.13222325825E+01
 0.13885037974E+01 0.14654148647E+01 0.15523040791E+01 0.16479674214E+01 0.17505939043E+01
 0.18577452044E+01 0.19663984997E+01 0.20730615206E+01 0.21739550661E+01 0.22652440606E+01
 0.23432880053E+01 0.24048791056E+01 0.24474423688E+01 0.24691836708E+01 0.24691836708E+01
 0.24474423688E+01 0.24048791056E+01 0.23432880053E+01 0.22652440606E+01 0.21739550661E+01
 0.20730615206E+01 0.19663984997E+01 0.18577452044E+01 0.17505939043E+01 0.16479674214E+01
 0.15523040791E+01 0.14654148647E+01 0.13885037974E+01 0.13222325825E+01 0.12668064203E+01
 0.12220594468E+01 0.11875244365E+01 0.11624800643E+01 0.11459781619E+01 0.11368611246E+01
 0.11337839637E+01 0.11352548197E+01 0.11397019409E+01 0.11455663893E+01 0.11514064395E+01
 0.11560263548E+01 0.11585595838E+01 0.11585595838E+01 0.11560263548E+01 0.11514064395E+01
 0.11455663893E+01 0.11397019409E+01 0.11352548197E+01 0.11337839637E+01 0.11368611246E+01
 0.11459781619E+01 0.11624800643E+01 0.12430869240E+01 0.12740958301E+01 0.13158057530E+01
 0.13686312164E+01 0.14326250843E+01 0.15074044579E+01 0.15920693342E+01 0.16851320117E+01
 0.17844792793E+01 0.18873880009E+01 0.19906074383E+01 0.20905099149E+01 0.21832979174E+01
 0.22652440606E+01 0.23329341797E+01 0.23834853902E+01 0.24147194956E+01 0.24252836529E+01
 0.24147194956E+01 0.23834853902E+01 0.23329341797E+01 0.22652440606E+01 0.21832979174E+01
 0.20905099149E+01 0.19906074383E+01 0.18873880009E+01 0.17844792793E+01 0.16851320117E+01
 0.15920693342E+01 0.15074044579E+01 0.14326250843E+01 0.13686312164E+01 0.13158057530E+01
 0.12740958301E+01 0.12430869240E+01 0.12220594468E+01 0.12100265531E+01 0.12057600326E+01
 0.12078166941E+01 0.12145789175E+01 0.12243192479E+01 0.12352911730E+01 0.12458396917E+01
 0.12545192813E+01 0.12602047647E+01 0.12621815943E+01 0.12602047647E+01 0.12545192813E+01
 0.12458396917E+01 0.12352911730E+01 0.12243192479E+01 0.12145789175E+01 0.12078166941E+01
 0.12057600326E+01 0.12100265531E+01 0.12220594468E+01 0.12909113747E+01 0.13182223104E+01
 0.13566816797E+01 0.14065848704E+01 0.14678119858E+01 0.15397579809E+01 0.16212633357E+01
 0.17105645860E+01 0.18052857775E+01 0.19024877307E+01 0.19987827113E+01 0.20905099149E+01
 0.21739550661E+01 0.22455886365E+01 0.23022945057E+01 0.23415652879E+01 0.23616500141E+01
 0.23616500141E+01 0.23415652879E+01 0.23022945057E+01 0.22455886365E+01 0.21739550661E+01
 0.20905099149E+01 0.19987827113E+01 0.19024877307E+01 0.18052857775E+01 0.17105645860E+01
 0.16212633357E+01 0.15397579809E+01 0.14678119858E+01 0.14065848704E+01 0.13566816797E+01
 0.13182223104E+01 0.12909113747E+01 0.12740958301E+01 0.12668064203E+01 0.12677874376E+01
 0.12755254807E+01 0.12882903300E+01 0.13041988255E+01 0.13213060321E+01 0.13377193856E+01
 0.13517244090E+01 0.13619073753E+01 0.13672608693E+01 0.13672608693E+01 0.13619073753E+01
 0.13517244090E+01 0.13377193856E+01 0.13213060321E+01 0.13041988255E+01 0.12882903300E+01
 0.12755254807E+01 0.12677874376E+01 0.12668064203E+01 0.12740958301E+01 0.13307097229E+01
 0.13541599355E+01 0.13891014865E+01 0.14356607412E+01 0.14935093996E+01 0.15618043736E+01
 0.16391346762E+01 0.17234950084E+01 0.18123051230E+01 0.19024877307E+01 0.19906074383E+01
 0.20730615206E+01 0.21463029779E+01 0.22070701652E+01 0.22525973269E+01 0.22807865219E+01
 0.22903307748E+01 0.22807865219E+01 0.22525973269E+01 0.22070701652E+01 0.21463029779E+01
 0.20730615206E+01 0.19906074383E+01 0.19024877307E+01 0.18123051230E+01 0.17234950084E+01
 0.16391346762E+01 0.15618043736E+01 0.14935093996E+01 0.14356607412E+01 0.13891014865E+01
 0.13541599355E+01 0.13307097229E+01 0.13182223104E+01 0.13158057530E+01 0.13222325825E+01
 0.13359664618E+01 0.13552004751E+01 0.13779187578E+01 0.14019875914E+01 0.14252736465E+01
 0.14457789411E+01 0.14617774178E+01 0.14719378153E+01 0.14754202745E+01 0.14719378153E+01
 0.14617774178E+01 0.14457789411E+01 0.14252736465E+01 0.14019875914E+01 0.13779187578E+01
 0.13552004751E+01 0.13359664618E+01 0.13222325825E+01 0.13158057530E+01 0.13182223104E+01
 0.13622103599E+01 0.13815971198E+01 0.14126827734E+01 0.14553962551E+01 0.15091889308E+01
 0.15729868672E+01 0.16451553639E+01 0.17234950084E+01 0.18052857775E+01 0.18873880009E+01
 0.19663984997E+01 0.20388493481E+01 0.21014280736E+01 0.21511942509E+01 0.21857696943E+01
 0.22034866083E+01 0.22034866083E+01 0.21857696943E+01 0.21511942509E+01 0.21014280736E+01
 0.20388493481E+01 0.19663984997E+01 0.18873880009E+01 0.18052857775E+01 0.17234950084E+01
 0.16451553639E+01 0.15729868672E+01 0.15091889308E+01 0.14553962551E+01 0.14126827734E+01
 0.13815971198E+01 0.13622103599E+01 0.13541599355E+01 0.13566816797E+01 0.13686312164E+01
 0.13885037974E+01 0.14144656851E+01 0.14444098298E+01 0.14760438539E+01 0.15070102369E+01
 0.15350296668E+01 0.15580521758E+01 0.15743990109E+01 0.15828806535E+01 0.15828806535E+01
 0.15743990109E+01 0.15580521758E+01 0.15350296668E+01 0.15070102369E+01 0.14760438539E+01
 0.14444098298E+01 0.14144656851E+01 0.13885037974E+01 0.13686312164E+01 0.13566816797E+01
 0.13541599355E+01 0.13850883242E+01 0.14001762838E+01 0.14270343385E+01 0.14653844419E+01
 0.15144630832E+01 0.15729868672E+01 0.16391346762E+01 0.17105645860E+01 0.17844792793E+01
 0.18577452044E+01 0.19270603173E+01 0.19891552385E+01 0.20410057135E+01 0.20800326348E+01
 0.21042699665E+01 0.21124884161E+01 0.21042699665E+01 0.20800326348E+01 0.20410057135E+01
 0.19891552385E+01 0.19270603173E+01 0.18577452044E+01 0.17844792793E+01 0.17105645860E+01
 0.16391346762E+01 0.15729868672E+01 0.15144630832E+01 0.14653844419E+01 0.14270343385E+01
 0.14001762838E+01 0.13850883242E+01 0.13815971198E+01 0.13891014865E+01 0.14065848704E+01
 0.14326250843E+01 0.14654148647E+01 0.15028073422E+01 0.15423965226E+01 0.15816352055E+01
 0.16179833857E+01 0.16490722095E+01 0.16728649175E+01 0.16877975746E+01 0.16928869120E+01
 0.16877975746E+01 0.16728649175E+01 0.16490722095E+01 0.16179833857E+01 0.15816352055E+01
 0.15423965226E+01 0.15028073422E+01 0.14654148647E+01 0.14326250843E+01 0.14065848704E+01
 0.13891014865E+01 0.13815971198E+01 0.13989983202E+01 0.14095664829E+01 0.14318559004E+01
 0.14653844419E+01 0.15091889308E+01 0.15618043736E+01 0.16212633357E+01 0.16851320117E+01
 0.17505939043E+01 0.18145830697E+01 0.18739586516E+01 0.19257034057E+01 0.19671238852E+01
 0.19960305831E+01 0.20108817465E+01 0.20108817465E+01 0.19960305831E+01 0.19671238852E+01
 0.19257034057E+01 0.18739586516E+01 0.18145830697E+01 0.17505939043E+01 0.16851320117E+01
 0.16212633357E+01 0.15618043736E+01 0.15091889308E+01 0.14653844419E+01 0.14318559004E+01
 0.14095664829E+01 0.13989983202E+01 0.14001762838E+01 0.14126827734E+01 0.14356607412E+01
 0.14678119858E+01 0.15074044579E+01 0.15523040791E+01 0.16000433998E+01 0.16479322992E+01
 0.16932064633E+01 0.17332001841E+01 0.17655242278E+01 0.17882290299E+01 0.17999374984E+01
 0.17999374984E+01 0.17882290299E+01 0.17655242278E+01 0.17332001841E+01 0.16932064633E+01
 0.16479322992E+01 0.16000433998E+01 0.15523040791E+01 0.15074044579E+01 0.14678119858E+01
 0.14356607412E+01 0.14126827734E+01 0.14001762838E+01 0.14036693510E+01 0.14095664829E+01
 0.14270343385E+01 0.14553962551E+01 0.14935093996E+01 0.15397579809E+01 0.15920693342E+01
 0.16479674214E+01 0.17046718060E+01 0.17592408891E+01 0.18087482821E+01 0.18504735363E+01
 0.18820856633E+01 0.19018005230E+01 0.19084991789E+01 0.19018005230E+01 0.18820856633E+01
 0.18504735363E+01 0.18087482821E+01 0.17592408891E+01 0.17046718060E+01 0.16479674214E+01
 0.15920693342E+01 0.15397579809E+01 0.14935093996E+01 0.14553962551E+01 0.14270343385E+01
 0.14095664829E+01 0.14036693510E+01 0.14095664829E+01 0.14270343385E+01 0.14553962551E+01
 0.14935093996E+01 0.15397579809E+01 0.15920693342E+01 0.16479674214E+01 0.17046718060E+01
 0.17592408891E+01 0.18087482821E+01 0.18504735363E+01 0.18820856633E+01 0.19018005230E+01