periodic system                         
   5.65000000000000     
     0.000000    0.500787    0.500787
     0.500787    0.000000    0.500787
     0.500787    0.500787    0.000000
   1   1
Direct
  0.000000  0.000000  0.000000
  0.500000  0.500000  0.500000
 
   56   56   56
 0.12786     0.13274     0.14692     0.16919     0.19788     0.23126     0.26789     0.30695     0.34820     0.39200    
 0.43909     0.49036     0.54669     0.60865     0.67631     0.74903     0.82541     0.90341     0.98067      1.0549    
  1.1241      1.1870      1.2425      1.2904      1.3302      1.3617      1.3846      1.3985      1.4031      1.3985    
  1.3846      1.3617      1.3302      1.2904      1.2425      1.1870      1.1241      1.0549     0.98067     0.90341    
 0.82541     0.74903     0.67631     0.60865     0.54669     0.49036     0.43909     0.39200     0.34820     0.30695    
 0.26789     0.23126     0.19788     0.16919     0.14692     0.13274     0.13274     0.14226     0.16048     0.18592    
 0.21689     0.25180     0.28953     0.32957     0.37202     0.41744     0.46667     0.52060     0.57997     0.64512    
 0.71576     0.79085     0.86864     0.94688      1.0232      1.0954      1.1619      1.2215      1.2736      1.3177    
  1.3536      1.3811      1.3996      1.4090      1.4090      1.3997      1.3811      1.3536      1.3177      1.2736    
  1.2215      1.1619      1.0954      1.0232     0.94688     0.86864     0.79085     0.71576     0.64512     0.57997    
 0.52060     0.46667     0.41744     0.37202     0.32957     0.28953     0.25180     0.21689     0.18592     0.16048    
 0.14226     0.13274     0.14692     0.16048     0.18184     0.20947     0.24183     0.27763     0.31613     0.35720    
 0.40117     0.44876     0.50082     0.55815     0.62127     0.69018     0.76419     0.84184     0.92108     0.99955    
  1.0750      1.1454      1.2095      1.2663      1.3153      1.3562      1.3886      1.4122      1.4265      1.4313    
  1.4265      1.4122      1.3886      1.3562      1.3153      1.2663      1.2095      1.1454      1.0750     0.99955    
 0.92108     0.84184     0.76419     0.69018     0.62127     0.55815     0.50082     0.44876     0.40117     0.35720    
 0.31613     0.27763     0.24183     0.20947     0.18183     0.16047     0.14692     0.14226     0.16919     0.18592    
 0.20947     0.23845     0.27158     0.30800     0.34737     0.38984     0.43596     0.48648     0.54220     0.60373    
 0.67127     0.74442     0.82203     0.90230     0.98296      1.0617      1.1363      1.2052      1.2673      1.3217    
  1.3681      1.4061      1.4352      1.4549      1.4649      1.4649      1.4549      1.4352      1.4061      1.3681    
  1.3217      1.2673      1.2052      1.1363      1.0617     0.98296     0.90230     0.82203     0.74442     0.67127    
 0.60373     0.54220     0.48648     0.43596     0.38984     0.34737     0.30800     0.27158     0.23845     0.20947    
 0.18592     0.16919     0.16047     0.16048     0.19788     0.21689     0.24183     0.27158     0.30527     0.34246    
 0.38316     0.42773     0.47684     0.53119     0.59143     0.65791     0.73042     0.80811     0.88941     0.97224    
  1.0543      1.1332      1.2073      1.2750      1.3355      1.3880      1.4321      1.4673      1.4930      1.5087    
  1.5140      1.5087      1.4930      1.4673      1.4321      1.3880      1.3355      1.2750      1.2073      1.1332    
  1.0543     0.97224     0.88941     0.80811     0.73042     0.65791     0.59143     0.53119     0.47683     0.42773    
 0.38316     0.34246     0.30527     0.27158     0.24183     0.21689     0.19788     0.18592     0.18183     0.18592    
 0.23126     0.25180     0.27763     0.30800     0.34246     0.38095     0.42372     0.47129     0.52433     0.58344    
 0.64901     0.72103     0.79886     0.88119     0.96611      1.0514      1.1347      1.2140      1.2878      1.3547    
  1.4140      1.4649      1.5069      1.5393      1.5613      1.5725      1.5725      1.5613      1.5393      1.5069    
  1.4649      1.4140      1.3547      1.2878      1.2140      1.1347      1.0514     0.96612     0.88119     0.79886    
 0.72103     0.64901     0.58343     0.52433     0.47129     0.42372     0.38095     0.34246     0.30800     0.27763    
 0.25180     0.23125     0.21689     0.20947     0.20947     0.21689     0.26789     0.28953     0.31613     0.34737    
 0.38316     0.42372     0.46949     0.52105     0.57896     0.64366     0.71520     0.79314     0.87639     0.96325    
  1.0516      1.1392      1.2238      1.3037      1.3774      1.4439      1.5023      1.5519      1.5916      1.6208    
  1.6387      1.6447      1.6387      1.6208      1.5916      1.5519      1.5023      1.4439      1.3774      1.3037    
  1.2238      1.1392      1.0516     0.96325     0.87639     0.79314     0.71520     0.64366     0.57896     0.52105    
 0.46949     0.42372     0.38316     0.34737     0.31614     0.28953     0.26789     0.25180     0.24183     0.23845    
 0.24183     0.25180     0.30695     0.32957     0.35720     0.38984     0.42773     0.47129     0.52105     0.57753    
 0.64116     0.71208     0.78995     0.87389     0.96239      1.0535      1.1450      1.2348      1.3208      1.4015    
  1.4756      1.5420      1.5996      1.6475      1.6847      1.7102      1.7231      1.7231      1.7101      1.6847    
  1.6475      1.5996      1.5420      1.4756      1.4015      1.3208      1.2348      1.1450      1.0535     0.96239    
 0.87389     0.78995     0.71208     0.64116     0.57753     0.52105     0.47129     0.42774     0.38984     0.35720    
 0.32957     0.30695     0.28953     0.27763     0.27158     0.27158     0.27763     0.28953     0.34820     0.37202    
 0.40117     0.43596     0.47684     0.52433     0.57896     0.64116     0.71110     0.78855     0.87278     0.96248    
  1.0559      1.1509      1.2453      1.3372      1.4248      1.5066      1.5812      1.6475      1.7043      1.7502    
  1.7841      1.8049      1.8119      1.8049      1.7841      1.7502      1.7043      1.6475      1.5812      1.5066    
  1.4248      1.3372      1.2453      1.1509      1.0559     0.96248     0.87278     0.78855     0.71110     0.64116    
 0.57896     0.52433     0.47684     0.43596     0.40117     0.37202     0.34820     0.32957     0.31614     0.30800    
 0.30527     0.30800     0.31613     0.32957     0.39200     0.41744     0.44876     0.48648     0.53119     0.58344    
 0.64366     0.71208     0.78855     0.87247     0.96273      1.0577      1.1555      1.2540      1.3512      1.4453    
  1.5346      1.6176      1.6928      1.7589      1.8142      1.8574      1.8870      1.9021      1.9021      1.8870    
  1.8574      1.8142      1.7589      1.6928      1.6176      1.5346      1.4453      1.3512      1.2540      1.1555    
  1.0577     0.96273     0.87247     0.78855     0.71208     0.64366     0.58344     0.53119     0.48648     0.44876    
 0.41744     0.39200     0.37202     0.35720     0.34737     0.34246     0.34246     0.34737     0.35720     0.37202    
 0.43909     0.46667     0.50082     0.54220     0.59143     0.64901     0.71520     0.78995     0.87278     0.96273    
  1.0584      1.1580      1.2597      1.3614      1.4613      1.5576      1.6487      1.7328      1.8084      1.8736    
  1.9267      1.9661      1.9903      1.9985      1.9903      1.9661      1.9267      1.8736      1.8084      1.7328    
  1.6487      1.5576      1.4613      1.3614      1.2597      1.1580      1.0584     0.96272     0.87278     0.78995    
 0.71520     0.64901     0.59144     0.54220     0.50082     0.46667     0.43909     0.41744     0.40117     0.38984    
 0.38316     0.38095     0.38316     0.38984     0.40117     0.41744     0.49036     0.52060     0.55815     0.60373    
 0.65791     0.72103     0.79314     0.87389     0.96248      1.0577      1.1580      1.2617      1.3668      1.4715    
  1.5740      1.6725      1.7652      1.8501      1.9254      1.9889      2.0386      2.0728      2.0902      2.0902    
  2.0728      2.0386      1.9889      1.9254      1.8501      1.7652      1.6725      1.5740      1.4715      1.3668    
  1.2617      1.1580      1.0577     0.96248     0.87389     0.79314     0.72103     0.65791     0.60373     0.55815    
 0.52060     0.49036     0.46667     0.44876     0.43596     0.42774     0.42372     0.42372     0.42773     0.43596    
 0.44876     0.46667     0.54669     0.57997     0.62127     0.67127     0.73042     0.79886     0.87639     0.96239    
  1.0559      1.1555      1.2597      1.3668      1.4750      1.5825      1.6874      1.7879      1.8818      1.9668    
  2.0407      2.1012      2.1461      2.1737      2.1831      2.1737      2.1461      2.1012      2.0407      1.9668    
  1.8818      1.7879      1.6874      1.5825      1.4750      1.3668      1.2597      1.1555      1.0559     0.96239    
 0.87639     0.79886     0.73042     0.67127     0.62127     0.57997     0.54669     0.52060     0.50082     0.48648    
 0.47684     0.47129     0.46949     0.47129     0.47683     0.48648     0.50082     0.52060     0.60865     0.64512    
 0.69018     0.74442     0.80811     0.88119     0.96325      1.0535      1.1509      1.2540      1.3614      1.4715    
  1.5825      1.6925      1.7996      1.9015      1.9957      2.0798      2.1510      2.2068      2.2454      2.2650    
  2.2650      2.2454      2.2069      2.1510      2.0798      1.9957      1.9015      1.7996      1.6925      1.5825    
  1.4715      1.3614      1.2540      1.1509      1.0535     0.96325     0.88119     0.80811     0.74442     0.69019    
 0.64512     0.60865     0.57997     0.55815     0.54220     0.53119     0.52433     0.52105     0.52105     0.52433    
 0.53119     0.54220     0.55815     0.57997     0.67631     0.71576     0.76419     0.82203     0.88941     0.96611    
  1.0516      1.1450      1.2453      1.3512      1.4613      1.5740      1.6874      1.7996      1.9082      2.0106    
  2.1040      2.1855      2.2524      2.3021      2.3328      2.3431      2.3328      2.3021      2.2524      2.1855    
  2.1040      2.0106      1.9082      1.7996      1.6874      1.5740      1.4613      1.3512      1.2453      1.1450    
  1.0516     0.96612     0.88942     0.82203     0.76419     0.71576     0.67631     0.64512     0.62127     0.60373    
 0.59144     0.58344     0.57896     0.57753     0.57896     0.58343     0.59143     0.60373     0.62127     0.64512    
 0.74903     0.79085     0.84184     0.90230     0.97224      1.0514      1.1392      1.2348      1.3372      1.4453    
  1.5576      1.6725      1.7879      1.9015      2.0106      2.1122      2.2033      2.2806      2.3414      2.3833    
  2.4047      2.4047      2.3833      2.3414      2.2806      2.2033      2.1122      2.0106      1.9015      1.7879    
  1.6725      1.5576      1.4453      1.3372      1.2348      1.1392      1.0514     0.97225     0.90230     0.84184    
 0.79085     0.74903     0.71576     0.69019     0.67127     0.65791     0.64901     0.64366     0.64116     0.64116    
 0.64366     0.64901     0.65791     0.67127     0.69018     0.71576     0.82541     0.86864     0.92108     0.98296    
  1.0543      1.1347      1.2238      1.3208      1.4248      1.5346      1.6487      1.7652      1.8818      1.9957    
  2.1040      2.2033      2.2901      2.3615      2.4146      2.4473      2.4584      2.4473      2.4146      2.3615    
  2.2901      2.2033      2.1040      1.9957      1.8818      1.7652      1.6487      1.5346      1.4248      1.3208    
  1.2238      1.1347      1.0543     0.98296     0.92108     0.86864     0.82541     0.79085     0.76419     0.74442    
 0.73042     0.72103     0.71520     0.71208     0.71110     0.71208     0.71520     0.72103     0.73042     0.74442    
 0.76419     0.79085     0.90341     0.94688     0.99955      1.0617      1.1332      1.2140      1.3037      1.4015    
  1.5066      1.6176      1.7328      1.8501      1.9668      2.0798      2.1855      2.2806      2.3615      2.4252    
  2.4691      2.4915      2.4915      2.4691      2.4252      2.3615      2.2806      2.1855      2.0798      1.9668    
  1.8501      1.7328      1.6176      1.5066      1.4015      1.3037      1.2141      1.1332      1.0617     0.99955    
 0.94688     0.90341     0.86864     0.84184     0.82203     0.80811     0.79886     0.79314     0.78995     0.78855    
 0.78855     0.78995     0.79314     0.79886     0.80811     0.82203     0.84184     0.86864     0.98067      1.0232    
  1.0750      1.1363      1.2073      1.2878      1.3774      1.4756      1.5812      1.6928      1.8084      1.9254    
  2.0407      2.1510      2.2524      2.3414      2.4146      2.4691      2.5027      2.5140      2.5027      2.4691    
  2.4146      2.3414      2.2524      2.1510      2.0407      1.9254      1.8084      1.6928      1.5812      1.4756    
  1.3774      1.2878      1.2073      1.1363      1.0750      1.0232     0.98067     0.94688     0.92108     0.90230    
 0.88942     0.88119     0.87639     0.87389     0.87278     0.87247     0.87278     0.87389     0.87639     0.88119    
 0.88941     0.90230     0.92108     0.94688      1.0549      1.0954      1.1454      1.2052      1.2750      1.3547    
  1.4439      1.5420      1.6475      1.7589      1.8736      1.9889      2.1012      2.2068      2.3021      2.3833    
  2.4473      2.4915      2.5140      2.5140      2.4915      2.4473      2.3833      2.3021      2.2068      2.1012    
  1.9889      1.8736      1.7589      1.6475      1.5420      1.4440      1.3547      1.2750      1.2052      1.1454    
  1.0954      1.0549      1.0232     0.99955     0.98296     0.97225     0.96612     0.96325     0.96239     0.96248    
 0.96272     0.96273     0.96248     0.96239     0.96325     0.96612     0.97224     0.98296     0.99955      1.0232    
  1.1241      1.1619      1.2095      1.2673      1.3355      1.4140      1.5023      1.5996      1.7043      1.8142    
  1.9267      2.0386      2.1461      2.2454      2.3328      2.4047      2.4584      2.4915      2.5027      2.4915    
  2.4584      2.4047      2.3328      2.2454      2.1461      2.0386      1.9267      1.8142      1.7043      1.5996    
  1.5024      1.4140      1.3355      1.2673      1.2095      1.1619      1.1241      1.0954      1.0750      1.0617    
  1.0543      1.0514      1.0516      1.0535      1.0559      1.0577      1.0584      1.0577      1.0559      1.0535    
  1.0516      1.0514      1.0543      1.0617      1.0750      1.0954      1.1870      1.2215      1.2663      1.3217    
  1.3880      1.4649      1.5519      1.6475      1.7502      1.8574      1.9661      2.0728      2.1737      2.2650    
  2.3431      2.4047      2.4473      2.4691      2.4691      2.4473      2.4047      2.3431      2.2650      2.1737    
  2.0728      1.9661      1.8574      1.7502      1.6476      1.5519      1.4649      1.3880      1.3217      1.2663    
  1.2215      1.1870      1.1619      1.1454      1.1363      1.1332      1.1347      1.1392      1.1450      1.1509    
  1.1555      1.1580      1.1580      1.1555      1.1509      1.1450      1.1392      1.1347      1.1332      1.1363    
  1.1454      1.1619      1.2425      1.2736      1.3153      1.3681      1.4321      1.5069      1.5916      1.6847    
  1.7841      1.8870      1.9903      2.0902      2.1831      2.2650      2.3328      2.3833      2.4146      2.4252    
  2.4146      2.3833      2.3328      2.2650      2.1831      2.0903      1.9903      1.8871      1.7841      1.6847    
  1.5916      1.5069      1.4321      1.3681      1.3153      1.2735      1.2425      1.2215      1.2095      1.2052    
  1.2073      1.2141      1.2238      1.2348      1.2453      1.2540      1.2597      1.2617      1.2597      1.2540    
  1.2453      1.2348      1.2238      1.2140      1.2073      1.2052      1.2095      1.2215      1.2904      1.3177    
  1.3562      1.4061      1.4673      1.5393      1.6208      1.7102      1.8049      1.9021      1.9985      2.0902    
  2.1737      2.2454      2.3021      2.3414      2.3615      2.3615      2.3414      2.3021      2.2454      2.1737    
  2.0903      1.9985      1.9022      1.8049      1.7102      1.6208      1.5393      1.4673      1.4061      1.3561    
  1.3177      1.2903      1.2735      1.2663      1.2673      1.2750      1.2878      1.3037      1.3208      1.3372    
  1.3512      1.3614      1.3668      1.3668      1.3614      1.3512      1.3372      1.3208      1.3037      1.2878    
  1.2750      1.2673      1.2663      1.2736      1.3302      1.3536      1.3886      1.4352      1.4930      1.5613    
  1.6387      1.7231      1.8119      1.9021      1.9903      2.0728      2.1461      2.2069      2.2524      2.2806    
  2.2901      2.2806      2.2524      2.2068      2.1461      2.0728      1.9903      1.9022      1.8120      1.7231    
  1.6387      1.5613      1.4930      1.4351      1.3885      1.3536      1.3301      1.3177      1.3153      1.3217    
  1.3355      1.3547      1.3774      1.4015      1.4248      1.4453      1.4613      1.4715      1.4750      1.4715    
  1.4613      1.4453      1.4248      1.4015      1.3774      1.3547      1.3355      1.3217      1.3153      1.3177    
  1.3617      1.3811      1.4122      1.4549      1.5087      1.5725      1.6447      1.7231      1.8049      1.8870    
  1.9661      2.0386      2.1012      2.1510      2.1855      2.2033      2.2033      2.1855      2.1510      2.1012    
  2.0386      1.9661      1.8871      1.8049      1.7231      1.6447      1.5725      1.5087      1.4549      1.4121    
  1.3810      1.3616      1.3536      1.3561      1.3681      1.3880      1.4140      1.4440      1.4756      1.5066    
  1.5346      1.5576      1.5740      1.5825      1.5825      1.5740      1.5576      1.5346      1.5066      1.4756    
  1.4439      1.4140      1.3880      1.3681      1.3562      1.3536      1.3846      1.3996      1.4265      1.4649    
  1.5140      1.5725      1.6387      1.7101      1.7841      1.8574      1.9267      1.9889      2.0407      2.0798    
  2.1040      2.1122      2.1040      2.0798      2.0407      1.9889      1.9267      1.8574      1.7841      1.7102    
  1.6387      1.5725      1.5140      1.4648      1.4265      1.3996      1.3845      1.3810      1.3885      1.4061    
  1.4321      1.4649      1.5024      1.5420      1.5812      1.6176      1.6487      1.6725      1.6874      1.6925    
  1.6874      1.6725      1.6487      1.6176      1.5812      1.5420      1.5023      1.4649      1.4321      1.4061    
  1.3886      1.3811      1.3985      1.4090      1.4313      1.4649      1.5087      1.5613      1.6208      1.6847    
  1.7502      1.8142      1.8736      1.9254      1.9668      1.9957      2.0106      2.0106      1.9957      1.9668    
  1.9254      1.8736      1.8142      1.7502      1.6847      1.6208      1.5613      1.5087      1.4648      1.4313    
  1.4090      1.3984      1.3996      1.4121      1.4351      1.4673      1.5069      1.5519      1.5996      1.6475    
  1.6928      1.7328      1.7652      1.7879      1.7996      1.7996      1.7879      1.7652      1.7328      1.6928    
  1.6475      1.5996      1.5519      1.5069      1.4673      1.4352      1.4122      1.3997      1.4031      1.4090    
  1.4265      1.4549      1.4930      1.5393      1.5916      1.6475      1.7043      1.7589      1.8084      1.8501    
  1.8818      1.9015      1.9082      1.9015      1.8818      1.8501      1.8084      1.7589      1.7043      1.6476    
  1.5916      1.5393      1.4930      1.4549      1.4265      1.4090      1.4031      1.4090      1.4265      1.4549    
  1.4930      1.5393      1.5916      1.6476      1.7043      1.7589      1.8084      1.8501      1.8818      1.9015    
  1.9082      1.9015      1.8818      1.8501      1.8084      1.7589      1.7043      1.6475      1.5916      1.5393    
  1.4930      1.4549      1.4265      1.4090      1.3985      1.3997      1.4122      1.4352      1.4673      1.5069    
  1.5519      1.5996      1.6475      1.6928      1.7328      1.7652      1.7879      1.7996      1.7996      1.7879    
  1.7652      1.7328      1.6928      1.6475      1.5996      1.5519      1.5069      1.4673      1.4351      1.4121    
  1.3996      1.3984      1.4090      1.4313      1.4648      1.5087      1.5613      1.6208      1.6847      1.7502    
  1.8142      1.8736      1.9254      1.9668      1.9957      2.0106      2.0106      1.9957      1.9668      1.9254    
  1.8736      1.8142      1.7502      1.6847      1.6208      1.5613      1.5087      1.4649      1.4313      1.4090    
  1.3846      1.3811      1.3886      1.4061      1.4321      1.4649      1.5023      1.5420      1.5812      1.6176    
  1.6487      1.6725      1.6874      1.6925      1.6874      1.6725      1.6487      1.6176      1.5812      1.5420    
  1.5024      1.4649      1.4321      1.4061      1.3885      1.3810      1.3845      1.3996      1.4265      1.4648    
  1.5140      1.5725      1.6387      1.7102      1.7841      1.8574      1.9267      1.9889      2.0407      2.0798    
  2.1040      2.1122      2.1040      2.0798      2.0407      1.9889      1.9267      1.8574      1.7841      1.7101    
  1.6387      1.5725      1.5140      1.4649      1.4265      1.3996      1.3617      1.3536      1.3562      1.3681    
  1.3880      1.4140      1.4439      1.4756      1.5066      1.5346      1.5576      1.5740      1.5825      1.5825    
  1.5740      1.5576      1.5346      1.5066      1.4756      1.4440      1.4140      1.3880      1.3681      1.3561    
  1.3536      1.3616      1.3810      1.4121      1.4549      1.5087      1.5725      1.6447      1.7231      1.8049    
  1.8871      1.9661      2.0386      2.1012      2.1510      2.1855      2.2033      2.2033      2.1855      2.1510    
  2.1012      2.0386      1.9661      1.8870      1.8049      1.7231      1.6447      1.5725      1.5087      1.4549    
  1.4122      1.3811      1.3302      1.3177      1.3153      1.3217      1.3355      1.3547      1.3774      1.4015    
  1.4248      1.4453      1.4613      1.4715      1.4750      1.4715      1.4613      1.4453      1.4248      1.4015    
  1.3774      1.3547      1.3355      1.3217      1.3153      1.3177      1.3301      1.3536      1.3885      1.4351    
  1.4930      1.5613      1.6387      1.7231      1.8120      1.9022      1.9903      2.0728      2.1461      2.2068    
  2.2524      2.2806      2.2901      2.2806      2.2524      2.2069      2.1461      2.0728      1.9903      1.9021    
  1.8119      1.7231      1.6387      1.5613      1.4930      1.4352      1.3886      1.3536      1.2904      1.2736    
  1.2663      1.2673      1.2750      1.2878      1.3037      1.3208      1.3372      1.3512      1.3614      1.3668    
  1.3668      1.3614      1.3512      1.3372      1.3208      1.3037      1.2878      1.2750      1.2673      1.2663    
  1.2735      1.2903      1.3177      1.3561      1.4061      1.4673      1.5393      1.6208      1.7102      1.8049    
  1.9022      1.9985      2.0903      2.1737      2.2454      2.3021      2.3414      2.3615      2.3615      2.3414    
  2.3021      2.2454      2.1737      2.0902      1.9985      1.9021      1.8049      1.7102      1.6208      1.5393    
  1.4673      1.4061      1.3562      1.3177      1.2425      1.2215      1.2095      1.2052      1.2073      1.2140    
  1.2238      1.2348      1.2453      1.2540      1.2597      1.2617      1.2597      1.2540      1.2453      1.2348    
  1.2238      1.2141      1.2073      1.2052      1.2095      1.2215      1.2425      1.2735      1.3153      1.3681    
  1.4321      1.5069      1.5916      1.6847      1.7841      1.8871      1.9903      2.0903      2.1831      2.2650    
  2.3328      2.3833      2.4146      2.4252      2.4146      2.3833      2.3328      2.2650      2.1831      2.0902    
  1.9903      1.8870      1.7841      1.6847      1.5916      1.5069      1.4321      1.3681      1.3153      1.2736    
  1.1870      1.1619      1.1454      1.1363      1.1332      1.1347      1.1392      1.1450      1.1509      1.1555    
  1.1580      1.1580      1.1555      1.1509      1.1450      1.1392      1.1347      1.1332      1.1363      1.1454    
  1.1619      1.1870      1.2215      1.2663      1.3217      1.3880      1.4649      1.5519      1.6476      1.7502    
  1.8574      1.9661      2.0728      2.1737      2.2650      2.3431      2.4047      2.4473      2.4691      2.4691    
  2.4473      2.4047      2.3431      2.2650      2.1737      2.0728      1.9661      1.8574      1.7502      1.6475    
  1.5519      1.4649      1.3880      1.3217      1.2663      1.2215      1.1241      1.0954      1.0750      1.0617    
  1.0543      1.0514      1.0516      1.0535      1.0559      1.0577      1.0584      1.0577      1.0559      1.0535    
  1.0516      1.0514      1.0543      1.0617      1.0750      1.0954      1.1241      1.1619      1.2095      1.2673    
  1.3355      1.4140      1.5024      1.5996      1.7043      1.8142      1.9267      2.0386      2.1461      2.2454    
  2.3328      2.4047      2.4584      2.4915      2.5027      2.4915      2.4584      2.4047      2.3328      2.2454    
  2.1461      2.0386      1.9267      1.8142      1.7043      1.5996      1.5023      1.4140      1.3355      1.2673    
  1.2095      1.1619      1.0549      1.0232     0.99955     0.98296     0.97224     0.96612     0.96325     0.96239    
 0.96248     0.96273     0.96272     0.96248     0.96239     0.96325     0.96612     0.97225     0.98296     0.99955    
  1.0232      1.0549      1.0954      1.1454      1.2052      1.2750      1.3547      1.4440      1.5420      1.6475    
  1.7589      1.8736      1.9889      2.1012      2.2068      2.3021      2.3833      2.4473      2.4915      2.5140    
  2.5140      2.4915      2.4473      2.3833      2.3021      2.2068      2.1012      1.9889      1.8736      1.7589    
  1.6475      1.5420      1.4439      1.3547      1.2750      1.2052      1.1454      1.0954     0.98067     0.94688    
 0.92108     0.90230     0.88941     0.88119     0.87639     0.87389     0.87278     0.87247     0.87278     0.87389    
 0.87639     0.88119     0.88942     0.90230     0.92108     0.94688     0.98067      1.0232      1.0750      1.1363    
  1.2073      1.2878      1.3774      1.4756      1.5812      1.6928      1.8084      1.9254      2.0407      2.1510    
  2.2524      2.3414      2.4146      2.4691      2.5027      2.5140      2.5027      2.4691      2.4146      2.3414    
  2.2524      2.1510      2.0407      1.9254      1.8084      1.6928      1.5812      1.4756      1.3774      1.2878    
  1.2073      1.1363      1.0750      1.0232     0.90341     0.86864     0.84184     0.82203     0.80811     0.79886    
 0.79314     0.78995     0.78855     0.78855     0.78995     0.79314     0.79886     0.80811     0.82203     0.84184    
 0.86864     0.90341     0.94688     0.99955      1.0617      1.1332      1.2141      1.3037      1.4015      1.5066    
  1.6176      1.7328      1.8501      1.9668      2.0798      2.1855      2.2806      2.3615      2.4252      2.4691    
  2.4915      2.4915      2.4691      2.4252      2.3615      2.2806      2.1855      2.0798      1.9668      1.8501    
  1.7328      1.6176      1.5066      1.4015      1.3037      1.2140      1.1332      1.0617     0.99955     0.94688    
 0.82541     0.79085     0.76419     0.74442     0.73042     0.72103     0.71520     0.71208     0.71110     0.71208    
 0.71520     0.72103     0.73042     0.74442     0.76419     0.79085     0.82541     0.86864     0.92108     0.98296    
  1.0543      1.1347      1.2238      1.3208      1.4248      1.5346      1.6487      1.7652      1.8818      1.9957    
  2.1040      2.2033      2.2901      2.3615      2.4146      2.4473      2.4584      2.4473      2.4146      2.3615    
  2.2901      2.2033      2.1040      1.9957      1.8818      1.7652      1.6487      1.5346      1.4248      1.3208    
  1.2238      1.1347      1.0543     0.98296     0.92108     0.86864     0.74903     0.71576     0.69018     0.67127    
 0.65791     0.64901     0.64366     0.64116     0.64116     0.64366     0.64901     0.65791     0.67127     0.69019    
 0.71576     0.74903     0.79085     0.84184     0.90230     0.97225      1.0514      1.1392      1.2348      1.3372    
  1.4453      1.5576      1.6725      1.7879      1.9015      2.0106      2.1122      2.2033      2.2806      2.3414    
  2.3833      2.4047      2.4047      2.3833      2.3414      2.2806      2.2033      2.1122      2.0106      1.9015    
  1.7879      1.6725      1.5576      1.4453      1.3372      1.2348      1.1392      1.0514     0.97224     0.90230    
 0.84184     0.79085     0.67631     0.64512     0.62127     0.60373     0.59143     0.58343     0.57896     0.57753    
 0.57896     0.58344     0.59144     0.60373     0.62127     0.64512     0.67631     0.71576     0.76419     0.82203    
 0.88942     0.96612      1.0516      1.1450      1.2453      1.3512      1.4613      1.5740      1.6874      1.7996    
  1.9082      2.0106      2.1040      2.1855      2.2524      2.3021      2.3328      2.3431      2.3328      2.3021    
  2.2524      2.1855      2.1040      2.0106      1.9082      1.7996      1.6874      1.5740      1.4613      1.3512    
  1.2453      1.1450      1.0516     0.96611     0.88941     0.82203     0.76419     0.71576     0.60865     0.57997    
 0.55815     0.54220     0.53119     0.52433     0.52105     0.52105     0.52433     0.53119     0.54220     0.55815    
 0.57997     0.60865     0.64512     0.69019     0.74442     0.80811     0.88119     0.96325      1.0535      1.1509    