periodic system                         
   5.65000000000000     
     0.000000    0.500787    0.500787
     0.500787    0.000000    0.500787
     0.500787    0.500787    0.000000
   Na    Cl
   1   1
Direct
  0.000000  0.000000  0.000000
  0.500000  0.500000  0.500000
 
   56   56   56
 0.26484956193E+06 0.14360142241E+05 0.21110225013E+04 0.12034426206E+04 0.78550672036E+03
 0.47639843474E+03 0.27707150222E+03 0.15848676979E+03 0.90320528100E+02 0.51607145019E+02
 0.29656548911E+02 0.17166002916E+02 0.10015394791E+02 0.58918642006E+01 0.34935141341E+01
 0.20870017668E+01 0.12552155670E+01 0.75987855723E+00 0.46305868287E+00 0.28408518368E+00
 0.17554918428E+00 0.10919792500E+00 0.68432322314E-01 0.43233718698E-01 0.27711080151E-01
 0.18210137756E-01 0.12640650861E-01 0.97038003806E-02 0.88073116713E-02 0.97038003809E-02
 0.12640650861E-01 0.18210137755E-01 0.27711080151E-01 0.43233718698E-01 0.68432322314E-01
 0.10919792500E+00 0.17554918428E+00 0.28408518368E+00 0.46305868287E+00 0.75987855723E+00
 0.12552155670E+01 0.20870017668E+01 0.34935141341E+01 0.58918642006E+01 0.10015394791E+02
 0.17166002916E+02 0.29656548911E+02 0.51607145019E+02 0.90320528100E+02 0.15848676979E+03
 0.27707150222E+03 0.47639843474E+03 0.78550672036E+03 0.12034426206E+04 0.21110225013E+04
 0.14360142241E+05 0.14360142241E+05 0.29413178745E+04 0.13923644858E+04 0.93817688452E+03
 0.59117558719E+03 0.35132087895E+03 0.20314190412E+03 0.11633188808E+03 0.66574445172E+02
 0.38244860805E+02 0.22105610324E+02 0.12870741666E+02 0.75531384646E+01 0.44671931806E+01
 0.26621150478E+01 0.15974696815E+01 0.96479856784E+00 0.58641454607E+00 0.35883034754E+00
 0.22105369566E+00 0.13714765517E+00 0.85653990683E-01 0.53909259362E-01 0.34281532728E-01
 0.22211491223E-01 0.14932928380E-01 0.10823563948E-01 0.89713384589E-02 0.89716226278E-02
 0.10824399221E-01 0.14931786177E-01 0.22211931332E-01 0.34280356358E-01 0.53911009769E-01
 0.85652782586E-01 0.13714909790E+00 0.22105221457E+00 0.35883174980E+00 0.58641298972E+00
 0.96480020981E+00 0.15974679984E+01 0.26621175433E+01 0.44671911894E+01 0.75531399965E+01
 0.12870737227E+02 0.22105609614E+02 0.38244856445E+02 0.66574439284E+02 0.11633189152E+03
 0.20314189281E+03 0.35132089400E+03 0.59117559121E+03 0.93817688261E+03 0.13923644916E+04
 0.29413178669E+04 0.14360142228E+05 0.21110225013E+04 0.13923644858E+04 0.99661923723E+03
 0.66112212660E+03 0.40795878889E+03 0.24184647718E+03 0.14075090587E+03 0.81393597280E+02
 0.47074235455E+02 0.27324278144E+02 0.15949353882E+02 0.93720739101E+01 0.55461320251E+01
 0.33054855815E+01 0.19833702499E+01 0.11974041222E+01 0.72726122224E+00 0.44451396323E+00
 0.27343313158E+00 0.16937806130E+00 0.10558033647E+00 0.66293838761E-01 0.41953322359E-01
 0.26935271619E-01 0.17724664248E-01 0.12323548826E-01 0.94687090172E-02 0.86018165569E-02
 0.94676740180E-02 0.12323836219E-01 0.17725248805E-01 0.26936150339E-01 0.41952617198E-01
 0.66293499577E-01 0.10557986465E+00 0.16937838423E+00 0.27343276407E+00 0.44451485706E+00
 0.72726007690E+00 0.11974043321E+01 0.19833706313E+01 0.33054893226E+01 0.55461306664E+01
 0.93720744329E+01 0.15949349189E+02 0.27324278364E+02 0.47074231127E+02 0.81393597474E+02
 0.14075090696E+03 0.24184647599E+03 0.40795879378E+03 0.66112212462E+03 0.99661923562E+03
 0.13923644853E+04 0.21110225052E+04 0.29413178669E+04 0.12034426206E+04 0.93817688452E+03
 0.66112212660E+03 0.42932999387E+03 0.26465711410E+03 0.15848676637E+03 0.93560632080E+02
 0.54926566401E+02 0.32231990942E+02 0.18964578363E+02 0.11209008431E+02 0.66615681968E+01
 0.39831377033E+01 0.23958891945E+01 0.14492100577E+01 0.88141535759E+00 0.53901286715E+00
 0.33166608686E+00 0.20536326995E+00 0.12797591838E+00 0.80250904132E-01 0.50685529301E-01
 0.32340859507E-01 0.21017144467E-01 0.14173821547E-01 0.10299019677E-01 0.85512609786E-02
 0.85507228828E-02 0.10300074896E-01 0.14172974299E-01 0.21016469552E-01 0.32340652394E-01
 0.50685933222E-01 0.80251802005E-01 0.12797578881E+00 0.20536352874E+00 0.33166558712E+00
 0.53901317879E+00 0.88141561333E+00 0.14492105334E+01 0.23958865615E+01 0.39831363310E+01
 0.66615669324E+01 0.11209010012E+02 0.18964576927E+02 0.32231990574E+02 0.54926563619E+02
 0.93560630648E+02 0.15848676650E+03 0.26465712079E+03 0.42933000435E+03 0.66112212405E+03
 0.93817688437E+03 0.12034426141E+04 0.13923644853E+04 0.13923644916E+04 0.78550672036E+03
 0.59117558719E+03 0.40795878889E+03 0.26465711410E+03 0.16500971976E+03 0.10048340930E+03
 0.60408217632E+02 0.36100823509E+02 0.21541177532E+02 0.12870737204E+02 0.77148442972E+01
 0.46437763296E+01 0.28081752085E+01 0.17061183402E+01 0.10413521999E+01 0.63864528152E+00
 0.39376090450E+00 0.24410747952E+00 0.15228560239E+00 0.95512446745E-01 0.60313550283E-01
 0.38357915329E-01 0.24749357571E-01 0.16354400729E-01 0.11422916746E-01 0.88017277815E-02
 0.80114723387E-02 0.88022322971E-02 0.11422585763E-01 0.16355055709E-01 0.24749610653E-01
 0.38358113965E-01 0.60313019663E-01 0.95511722181E-01 0.15228557116E+00 0.24410766059E+00
 0.39376072180E+00 0.63864484775E+00 0.10413530696E+01 0.17061195744E+01 0.28081755722E+01
 0.46437752710E+01 0.77148439378E+01 0.12870735084E+02 0.21541181488E+02 0.36100820851E+02
 0.60408223039E+02 0.10048340711E+03 0.16500970863E+03 0.26465711725E+03 0.40795877731E+03
 0.59117558551E+03 0.78550672937E+03 0.93817688437E+03 0.99661923562E+03 0.93817688261E+03
 0.47639843474E+03 0.35132087895E+03 0.24184647718E+03 0.15848676637E+03 0.10048340930E+03
 0.62382555593E+02 0.38244868962E+02 0.23289020083E+02 0.14142871637E+02 0.85880203232E+01
 0.52241791362E+01 0.31867582430E+01 0.19501749953E+01 0.11974004559E+01 0.73794257874E+00
 0.45676732418E+00 0.28406393407E+00 0.17762683894E+00 0.11163134068E+00 0.70555082256E-01
 0.44862827779E-01 0.28817594389E-01 0.18835207464E-01 0.12780370646E-01 0.93318885092E-02
 0.77752122318E-02 0.77743948543E-02 0.93315742674E-02 0.12779872977E-01 0.18836114104E-01
 0.28816258901E-01 0.44863762917E-01 0.70554444008E-01 0.11163312937E+00 0.17762558968E+00
 0.28406534103E+00 0.45676631255E+00 0.73794366725E+00 0.11973979938E+01 0.19501751523E+01
 0.31867548681E+01 0.52241778938E+01 0.85880189129E+01 0.14142867987E+02 0.23289021186E+02
 0.38244859387E+02 0.62382554983E+02 0.10048340693E+03 0.15848676299E+03 0.24184647944E+03
 0.35132089183E+03 0.47639843542E+03 0.59117558551E+03 0.66112212405E+03 0.66112212462E+03
 0.59117559121E+03 0.27707150222E+03 0.20314190412E+03 0.14075090587E+03 0.93560632080E+02
 0.60408217632E+02 0.38244868962E+02 0.23909351708E+02 0.14834349274E+02 0.91685019017E+01
 0.56586383094E+01 0.34935125156E+01 0.21596134506E+01 0.13374376181E+01 0.83030481163E+00
 0.51696009969E+00 0.32312002501E+00 0.20284938036E+00 0.12793261386E+00 0.81057846410E-01
 0.51624856996E-01 0.33118355677E-01 0.21516797329E-01 0.14337823002E-01 0.10068140491E-01
 0.78141047103E-02 0.71131882129E-02 0.78145912708E-02 0.10069379327E-01 0.14336709490E-01
 0.21517026976E-01 0.33118397916E-01 0.51625390254E-01 0.81057057995E-01 0.12793258318E+00
 0.20284857336E+00 0.32312012641E+00 0.51695995420E+00 0.83030707848E+00 0.13374372340E+01
 0.21596141878E+01 0.34935136248E+01 0.56586399084E+01 0.91685058119E+01 0.14834344820E+02
 0.23909358767E+02 0.38244863372E+02 0.60408211507E+02 0.93560634660E+02 0.14075089916E+03
 0.20314190428E+03 0.27707151217E+03 0.35132089183E+03 0.40795877731E+03 0.42933000435E+03
 0.40795879378E+03 0.35132089400E+03 0.15848676979E+03 0.11633188808E+03 0.81393597280E+02
 0.54926566401E+02 0.36100823509E+02 0.23289020083E+02 0.14834349274E+02 0.93720763929E+01
 0.58918617238E+01 0.36942867060E+01 0.23139146031E+01 0.14492157226E+01 0.90822602394E+00
 0.57009517043E+00 0.35879502706E+00 0.22654482867E+00 0.14359128590E+00 0.91352923369E-01
 0.58363491891E-01 0.37488508692E-01 0.24297986322E-01 0.16026427030E-01 0.10961411671E-01
 0.80672897458E-02 0.67520311758E-02 0.67524055107E-02 0.80658956090E-02 0.10961860638E-01
 0.16026196054E-01 0.24299259031E-01 0.37486896979E-01 0.58364459440E-01 0.91351709144E-01
 0.14359371007E+00 0.22654371958E+00 0.35879642588E+00 0.57009237471E+00 0.90822668583E+00
 0.14492126151E+01 0.23139137999E+01 0.36942844341E+01 0.58918578276E+01 0.93720821976E+01
 0.14834343285E+02 0.23289026882E+02 0.36100828033E+02 0.54926560034E+02 0.81393606267E+02
 0.11633189056E+03 0.15848675889E+03 0.20314190428E+03 0.24184647944E+03 0.26465711725E+03
 0.26465712079E+03 0.24184647599E+03 0.20314189281E+03 0.90320528100E+02 0.66574445172E+02
 0.47074235455E+02 0.32231990942E+02 0.21541177532E+02 0.14142871637E+02 0.91685019017E+01
 0.58918617238E+01 0.37641966768E+01 0.23958760966E+01 0.15212693866E+01 0.96477774971E+00
 0.61188169678E+00 0.38850971559E+00 0.24715875405E+00 0.15769753556E+00 0.10088262869E+00
 0.64762202155E-01 0.41722071619E-01 0.27067870995E-01 0.17756781309E-01 0.11959368418E-01
 0.84662068103E-02 0.66298850453E-02 0.60407097377E-02 0.66303663816E-02 0.84658820293E-02
 0.11960335446E-01 0.17755502903E-01 0.27068152121E-01 0.41722171493E-01 0.64763184077E-01
 0.10088165814E+00 0.15769690488E+00 0.24715816603E+00 0.38851161262E+00 0.61188224228E+00
 0.96477915363E+00 0.15212700493E+01 0.23958754522E+01 0.37642032782E+01 0.58918557012E+01
 0.91685121030E+01 0.14142860371E+02 0.21541175218E+02 0.32231991556E+02 0.47074222571E+02
 0.66574445883E+02 0.90320531407E+02 0.11633189056E+03 0.14075089916E+03 0.15848676299E+03
 0.16500970863E+03 0.15848676650E+03 0.14075090696E+03 0.11633189152E+03 0.51607145019E+02
 0.38244860805E+02 0.27324278144E+02 0.18964578363E+02 0.12870737204E+02 0.85880203232E+01
 0.56586383094E+01 0.36942867060E+01 0.23958760966E+01 0.15461944724E+01 0.99458344867E+00
 0.63864809466E+00 0.40987150563E+00 0.26320357559E+00 0.16930051428E+00 0.10908718447E+00
 0.70450869203E-01 0.45617126468E-01 0.29671314182E-01 0.19455379885E-01 0.12977885035E-01
 0.89728506929E-02 0.66664421156E-02 0.56159992297E-02 0.56147444102E-02 0.66680892267E-02
 0.89714120102E-02 0.12978813640E-01 0.19454536588E-01 0.29673206947E-01 0.45614480758E-01
 0.70452581579E-01 0.10908591653E+00 0.16930315112E+00 0.26320046559E+00 0.40987274048E+00
 0.63864515940E+00 0.99458281074E+00 0.15461932429E+01 0.23958699359E+01 0.36942920633E+01
 0.56586262125E+01 0.85880311676E+01 0.12870737707E+02 0.18964573337E+02 0.27324284689E+02
 0.38244857026E+02 0.51607141490E+02 0.66574445883E+02 0.81393606267E+02 0.93560634660E+02
 0.10048340693E+03 0.10048340711E+03 0.93560630648E+02 0.81393597474E+02 0.66574439284E+02
 0.29656548911E+02 0.22105610324E+02 0.15949353882E+02 0.11209008431E+02 0.77148442972E+01
 0.52241791362E+01 0.34935125156E+01 0.23139146031E+01 0.15212693866E+01 0.99458344867E+00
 0.64785928821E+00 0.42105338969E+00 0.27339030364E+00 0.17757795024E+00 0.11540566790E+00
 0.75099364446E-01 0.48932469868E-01 0.31985142753E-01 0.21009283258E-01 0.13971247136E-01
 0.95107693312E-02 0.68257317374E-02 0.53799508093E-02 0.49362921770E-02 0.53790033185E-02
 0.68259791802E-02 0.95101661510E-02 0.13972436609E-01 0.21008133532E-01 0.31985662984E-01
 0.48932353677E-01 0.75100020080E-01 0.11540498566E+00 0.17757869049E+00 0.27339082256E+00
 0.42105459213E+00 0.64786168727E+00 0.99458149906E+00 0.15212772536E+01 0.23139048539E+01
 0.34935281067E+01 0.52241664413E+01 0.77148441988E+01 0.11209008750E+02 0.15949346230E+02
 0.22105609870E+02 0.29656558982E+02 0.38244857026E+02 0.47074222571E+02 0.54926560034E+02
 0.60408211507E+02 0.62382554983E+02 0.60408223039E+02 0.54926563619E+02 0.47074231127E+02
 0.38244856445E+02 0.17166002916E+02 0.12870741666E+02 0.93720739101E+01 0.66615681968E+01
 0.46437763296E+01 0.31867582430E+01 0.21596134506E+01 0.14492157226E+01 0.96477774971E+00
 0.63864809466E+00 0.42105338969E+00 0.27689244258E+00 0.18188648095E+00 0.11940216158E+00
 0.78385344616E-01 0.51477190592E-01 0.33857299690E-01 0.22341890082E-01 0.14854984811E-01
 0.10043818558E-01 0.70357902591E-02 0.52914332943E-02 0.44888760731E-02 0.44916631720E-02
 0.52898577035E-02 0.70381920496E-02 0.10041738939E-01 0.14856419998E-01 0.22339926288E-01
 0.33860136546E-01 0.51474502951E-01 0.78387078603E-01 0.11939906656E+00 0.18188816270E+00
 0.27689015500E+00 0.42105234757E+00 0.63864916725E+00 0.96476891356E+00 0.14492243159E+01
 0.21595972582E+01 0.31867679452E+01 0.46437757422E+01 0.66615615537E+01 0.93720833709E+01
 0.12870738770E+02 0.17165995094E+02 0.22105609870E+02 0.27324284689E+02 0.32231991556E+02
 0.36100828033E+02 0.38244863372E+02 0.38244859387E+02 0.36100820851E+02 0.32231990574E+02
 0.27324278364E+02 0.22105609614E+02 0.10015394791E+02 0.75531384646E+01 0.55461320251E+01
 0.39831377033E+01 0.28081752085E+01 0.19501749953E+01 0.13374376180E+01 0.90822602394E+00
 0.61188169678E+00 0.40987150563E+00 0.27339030364E+00 0.18188648095E+00 0.12076244965E+00
 0.80092709354E-01 0.53072729815E-01 0.35184276539E-01 0.23355432547E-01 0.15584594408E-01
 0.10509038786E-01 0.72694743037E-02 0.52824146869E-02 0.42210103213E-02 0.38806668034E-02
 0.42206581125E-02 0.52815441349E-02 0.72695561180E-02 0.10508677925E-01 0.15585901444E-01
 0.23354816218E-01 0.35183142885E-01 0.53074152250E-01 0.80093569004E-01 0.12076476880E+00
 0.18188435516E+00 0.27339554719E+00 0.40986582068E+00 0.61189534196E+00 0.90821224730E+00
 0.13374567089E+01 0.19501603926E+01 0.28081741759E+01 0.39831453407E+01 0.55461193436E+01
 0.75531373357E+01 0.10015405738E+02 0.12870738770E+02 0.15949346230E+02 0.18964573337E+02
 0.21541175218E+02 0.23289026882E+02 0.23909358767E+02 0.23289021186E+02 0.21541181488E+02
 0.18964576927E+02 0.15949349189E+02 0.12870737227E+02 0.58918642006E+01 0.44671931806E+01
 0.33054855815E+01 0.23958891945E+01 0.17061183402E+01 0.11974004559E+01 0.83030481163E+00
 0.57009517043E+00 0.38850971559E+00 0.26320357559E+00 0.17757795024E+00 0.11940216158E+00
 0.80092709353E-01 0.53621615938E-01 0.35866225984E-01 0.23995707308E-01 0.16097188115E-01
 0.10877818875E-01 0.74742703303E-02 0.53234538298E-02 0.40619415051E-02 0.34817367295E-02
 0.34805876689E-02 0.40633616492E-02 0.53232428987E-02 0.74751411845E-02 0.10877039378E-01
 0.16096847514E-01 0.23996185719E-01 0.35866903280E-01 0.53619788119E-01 0.80090023268E-01
 0.11940301011E+00 0.17757352378E+00 0.26320953337E+00 0.38849665619E+00 0.57010848415E+00
 0.83028758323E+00 0.11974097373E+01 0.17061275241E+01 0.23958712982E+01 0.33055022404E+01
 0.44671928663E+01 0.58918592685E+01 0.75531373357E+01 0.93720833709E+01 0.11209008750E+02
 0.12870737707E+02 0.14142860371E+02 0.14834343285E+02 0.14834344820E+02 0.14142867987E+02
 0.12870735084E+02 0.11209010012E+02 0.93720744329E+01 0.75531399965E+01 0.34935141341E+01
 0.26621150478E+01 0.19833702499E+01 0.14492100577E+01 0.10413521999E+01 0.73794257874E+00
 0.51696009969E+00 0.35879502706E+00 0.24715875405E+00 0.16930051428E+00 0.11540566790E+00
 0.78385344616E-01 0.53072729813E-01 0.35866225985E-01 0.24212711839E-01 0.16365863264E-01
 0.11109616427E-01 0.76305349900E-02 0.53737952716E-02 0.39810825351E-02 0.32261023062E-02
 0.29874838551E-02 0.32262853180E-02 0.39805336667E-02 0.53735273070E-02 0.76301063272E-02
 0.11110235072E-01 0.16365266289E-01 0.24214268112E-01 0.35863935676E-01 0.53078666742E-01
 0.78382565962E-01 0.11541412711E+00 0.16929069508E+00 0.24717417485E+00 0.35878035336E+00
 0.51697614723E+00 0.73793840725E+00 0.10413362266E+01 0.14492336323E+01 0.19833535571E+01
 0.26621157150E+01 0.34935236951E+01 0.44671928663E+01 0.55461193436E+01 0.66615615537E+01
 0.77148441988E+01 0.85880311676E+01 0.91685121030E+01 0.93720821976E+01 0.91685058119E+01
 0.85880189129E+01 0.77148439378E+01 0.66615669324E+01 0.55461306664E+01 0.44671911894E+01
 0.20870017668E+01 0.15974696815E+01 0.11974041222E+01 0.88141535759E+00 0.63864528152E+00
 0.45676732418E+00 0.32312002501E+00 0.22654482867E+00 0.15769753556E+00 0.10908718447E+00
 0.75099364446E-01 0.51477190592E-01 0.35184276540E-01 0.23995707308E-01 0.16365863264E-01
 0.11188322933E-01 0.77141459782E-02 0.54131585043E-02 0.39432854946E-02 0.30717367762E-02
 0.26698520438E-02 0.26682386890E-02 0.30732408975E-02 0.39417090189E-02 0.54156352602E-02
 0.77119637453E-02 0.11191516665E-01 0.16361903880E-01 0.23997750399E-01 0.35180310712E-01
 0.51478867483E-01 0.75090918624E-01 0.10909387739E+00 0.15768658741E+00 0.22655357228E+00
 0.32311368147E+00 0.45676034232E+00 0.63867323753E+00 0.88138493922E+00 0.11974219269E+01
 0.15974760854E+01 0.20869842848E+01 0.26621157150E+01 0.33055022404E+01 0.39831453407E+01
 0.46437757422E+01 0.52241664413E+01 0.56586262125E+01 0.58918557012E+01 0.58918578276E+01
 0.56586399084E+01 0.52241778938E+01 0.46437752710E+01 0.39831363310E+01 0.33054893226E+01
 0.26621175433E+01 0.12552155670E+01 0.96479856784E+00 0.72726122224E+00 0.53901286715E+00
 0.39376090450E+00 0.28406393407E+00 0.20284938036E+00 0.14359128590E+00 0.10088262869E+00
 0.70450869202E-01 0.48932469868E-01 0.33857299689E-01 0.23355432547E-01 0.16097188115E-01
 0.11109616426E-01 0.77141459782E-02 0.54285700980E-02 0.39282185716E-02 0.29920969933E-02
 0.24815130467E-02 0.23192969355E-02 0.24815674583E-02 0.29923336881E-02 0.39283698126E-02
 0.54276655916E-02 0.77137329464E-02 0.11109323131E-01 0.16099479853E-01 0.23358024762E-01
 0.33856203187E-01 0.48938560375E-01 0.70448762185E-01 0.10088964686E+00 0.14358793344E+00
 0.20284852878E+00 0.28407580179E+00 0.39373082408E+00 0.53903668719E+00 0.72725950105E+00
 0.96477210666E+00 0.12552415341E+01 0.15974760854E+01 0.19833535571E+01 0.23958712982E+01
 0.28081741759E+01 0.31867679452E+01 0.34935281067E+01 0.36942920633E+01 0.37642032782E+01
 0.36942844341E+01 0.34935136248E+01 0.31867548681E+01 0.28081755722E+01 0.23958865615E+01
 0.19833706313E+01 0.15974679984E+01 0.75987855723E+00 0.58641454607E+00 0.44451396323E+00
 0.33166608686E+00 0.24410747952E+00 0.17762683894E+00 0.12793261386E+00 0.91352923370E-01
 0.64762202155E-01 0.45617126468E-01 0.31985142753E-01 0.22341890082E-01 0.15584594408E-01
 0.10877818875E-01 0.76305349910E-02 0.54131585045E-02 0.39282185723E-02 0.29673728831E-02
 0.23939904607E-02 0.21271615428E-02 0.21267336857E-02 0.23941411258E-02 0.29666167391E-02
 0.39283671470E-02 0.54148172207E-02 0.76300392575E-02 0.10878048462E-01 0.15579906223E-01
 0.22341054590E-01 0.31982833244E-01 0.45619336919E-01 0.64756739791E-01 0.91352491934E-01
 0.12793348445E+00 0.17761927026E+00 0.24413085332E+00 0.33165621221E+00 0.44449940452E+00
 0.58644712780E+00 0.75986650596E+00 0.96477210666E+00 0.11974219269E+01 0.14492336323E+01
 0.17061275241E+01 0.19501603926E+01 0.21595972582E+01 0.23139048539E+01 0.23958699359E+01
 0.23958754522E+01 0.23139137999E+01 0.21596141878E+01 0.19501751523E+01 0.17061195744E+01
 0.14492105334E+01 0.11974043321E+01 0.96480020981E+00 0.46305868287E+00 0.35883034754E+00
 0.27343313158E+00 0.20536326995E+00 0.15228560239E+00 0.11163134068E+00 0.81057846409E-01
 0.58363491890E-01 0.41722071619E-01 0.29671314181E-01 0.21009283258E-01 0.14854984811E-01
 0.10509038786E-01 0.74742703302E-02 0.53737952735E-02 0.39432854945E-02 0.29920969944E-02
 0.23939904615E-02 0.20663664587E-02 0.19617461002E-02 0.20665873634E-02 0.23943276718E-02
 0.29926035926E-02 0.39425790998E-02 0.53726244851E-02 0.74742825827E-02 0.10509178852E-01
 0.14855601805E-01 0.21010854272E-01 0.29661437088E-01 0.41726316752E-01 0.58367873535E-01
 0.81064223772E-01 0.11163124562E+00 0.15226703762E+00 0.20536596974E+00 0.27344820684E+00
 0.35881004807E+00 0.46304926146E+00 0.58644712780E+00 0.72725950105E+00 0.88138493922E+00
 0.10413362266E+01 0.11974097373E+01 0.13374567089E+01 0.14492243159E+01 0.15212772536E+01
 0.15461932429E+01 0.15212700493E+01 0.14492126151E+01 0.13374372340E+01 0.11973979938E+01
 0.10413530696E+01 0.88141561333E+00 0.72726007690E+00 0.58641298972E+00 0.28408518368E+00
 0.22105369566E+00 0.16937806130E+00 0.12797591838E+00 0.95512446745E-01 0.70555082256E-01
 0.51624856996E-01 0.37488508692E-01 0.27067870995E-01 0.19455379885E-01 0.13971247136E-01
 0.10043818557E-01 0.72694743045E-02 0.53234538298E-02 0.39810825358E-02 0.30717367762E-02
 0.24815130475E-02 0.21271615428E-02 0.19617461002E-02 0.19613908652E-02 0.21270165196E-02
 0.24808374343E-02 0.30725141399E-02 0.39796600000E-02 0.53254472332E-02 0.72685088835E-02
 0.10050893185E-01 0.13970468544E-01 0.19460704668E-01 0.27062845040E-01 0.37479056655E-01
 0.51617307274E-01 0.70556202867E-01 0.95528906037E-01 0.12797372275E+00 0.16937198933E+00
 0.22106246467E+00 0.28410243108E+00 0.35881004807E+00 0.44449940452E+00 0.53903668719E+00
 0.63867323753E+00 0.73793840725E+00 0.83028758323E+00 0.90821224730E+00 0.96476891356E+00
 0.99458149906E+00 0.99458281074E+00 0.96477915363E+00 0.90822668583E+00 0.83030707848E+00
 0.73794366725E+00 0.63864484775E+00 0.53901317879E+00 0.44451485706E+00 0.35883174980E+00
 0.17554918428E+00 0.13714765517E+00 0.10558033647E+00 0.80250904132E-01 0.60313550282E-01
 0.44862827779E-01 0.33118355677E-01 0.24297986321E-01 0.17756781309E-01 0.12977885035E-01
 0.95107693317E-02 0.70357902587E-02 0.52824146867E-02 0.40619415055E-02 0.32261023059E-02
 0.26698520441E-02 0.23192969368E-02 0.21267336845E-02 0.20665873639E-02 0.21270165201E-02
 0.23198381558E-02 0.26690805960E-02 0.32263183232E-02 0.40653382363E-02 0.52871052089E-02
 0.70422896302E-02 0.95177052020E-02 0.12988871753E-01 0.17775976859E-01 0.24296231315E-01
 0.33109047626E-01 0.44865151431E-01 0.60315222117E-01 0.80247580502E-01 0.10558110958E+00
 0.13714161581E+00 0.17553087186E+00 0.22106246467E+00 0.27344820684E+00 0.33165621221E+00
 0.39373082408E+00 0.45676034232E+00 0.51697614723E+00 0.57010848415E+00 0.61189534196E+00
 0.63864916725E+00 0.64786168727E+00 0.63864515940E+00 0.61188224228E+00 0.57009237471E+00
 0.51695995420E+00 0.45676631255E+00 0.39376072180E+00 0.33166558712E+00 0.27343276408E+00
 0.22105221457E+00 0.10919792500E+00 0.85653990683E-01 0.66293838760E-01 0.50685529301E-01
 0.38357915329E-01 0.28817594389E-01 0.21516797330E-01 0.16026427030E-01 0.11959368418E-01
 0.89728506924E-02 0.68257317375E-02 0.52914332944E-02 0.42210103207E-02 0.34817367301E-02
 0.29874838541E-02 0.26682386890E-02 0.24815674574E-02 0.23941411257E-02 0.23943276717E-02
 0.24808374342E-02 0.26690805955E-02 0.29865244722E-02 0.34847056120E-02 0.42190816631E-02
 0.52923234560E-02 0.68154010575E-02 0.89778758081E-02 0.11959096373E-01 0.16037640598E-01
 0.21530998934E-01 0.28805849549E-01 0.38350632605E-01 0.50691551205E-01 0.66283664089E-01
 0.85657158999E-01 0.10922324859E+00 0.13714161581E+00 0.16937198933E+00 0.20536596974E+00
 0.24413085332E+00 0.28407580179E+00 0.32311368147E+00 0.35878035336E+00 0.38849665619E+00
 0.40986582068E+00 0.42105234757E+00 0.42105459213E+00 0.40987274048E+00 0.38851161262E+00
 0.35879642588E+00 0.32312012641E+00 0.28406534103E+00 0.24410766059E+00 0.20536352874E+00
 0.16937838423E+00 0.13714909790E+00 0.68432322313E-01 0.53909259362E-01 0.41953322359E-01
 0.32340859507E-01 0.24749357571E-01 0.18835207463E-01 0.14337823002E-01 0.10961411670E-01
 0.84662068092E-02 0.66664421154E-02 0.53799508101E-02 0.44888760732E-02 0.38806668034E-02
 0.34805876690E-02 0.32262853178E-02 0.30732408972E-02 0.29923336872E-02 0.29666167392E-02
 0.29926035925E-02 0.30725141401E-02 0.32263183229E-02 0.34847056117E-02 0.38836476660E-02
 0.44867926770E-02 0.53726851674E-02 0.66632078254E-02 0.84650484726E-02 0.10969675714E-01
 0.14366282933E-01 0.18838422770E-01 0.24714405774E-01 0.32337436929E-01 0.41994399396E-01
 0.53904008001E-01 0.68417968292E-01 0.85657158999E-01 0.10558110958E+00 0.12797372275E+00
 0.15226703762E+00 0.17761927026E+00 0.20284852878E+00 0.22655357228E+00 0.24717417485E+00
 0.26320953338E+00 0.27339554719E+00 0.27689015500E+00 0.27339082256E+00 0.26320046559E+00
 0.24715816603E+00 0.22654371958E+00 0.20284857335E+00 0.17762558968E+00 0.15228557116E+00
 0.12797578881E+00 0.10557986465E+00 0.85652782586E-01 0.43233718701E-01 0.34281532728E-01
 0.26935271619E-01 0.21017144466E-01 0.16354400728E-01 0.12780370646E-01 0.10068140490E-01
 0.80672897457E-02 0.66298850452E-02 0.56159992296E-02 0.49362921769E-02 0.44916631720E-02
 0.42206581131E-02 0.40633616494E-02 0.39805336669E-02 0.39417090187E-02 0.39283698123E-02
 0.39283671470E-02 0.39425790996E-02 0.39796599995E-02 0.40653382358E-02 0.42190816632E-02
 0.44867926777E-02 0.49201167274E-02 0.56092492308E-02 0.66079004767E-02 0.80681027352E-02
 0.10088524573E-01 0.12784455144E-01 0.16367174446E-01 0.21012427140E-01 0.26930800624E-01
 0.34284512225E-01 0.43212117844E-01 0.53904008001E-01 0.66283664089E-01 0.80247580501E-01
 0.95528906037E-01 0.11163124562E+00 0.12793348445E+00 0.14358793344E+00 0.15768658741E+00
 0.16929069508E+00 0.17757352378E+00 0.18188435516E+00 0.18188816270E+00 0.17757869049E+00
 0.16930315112E+00 0.15769690488E+00 0.14359371007E+00 0.12793258318E+00 0.11163312937E+00
 0.95511722180E-01 0.80251802005E-01 0.66293499576E-01 0.53911009769E-01 0.27711080148E-01
 0.22211491223E-01 0.17724664248E-01 0.14173821546E-01 0.11422916746E-01 0.93318885097E-02
 0.78141047097E-02 0.67520311749E-02 0.60407097377E-02 0.56147444106E-02 0.53790033167E-02
 0.52898577034E-02 0.52815441342E-02 0.53232428980E-02 0.53735273066E-02 0.54156352607E-02
 0.54276655909E-02 0.54148172210E-02 0.53726244853E-02 0.53254472336E-02 0.52871052092E-02
 0.52923234554E-02 0.53726851671E-02 0.56092492308E-02 0.60259392577E-02 0.67503226996E-02
 0.78253005574E-02 0.93393733184E-02 0.11442941957E-01 0.14171394083E-01 0.17697221585E-01
 0.22209222614E-01 0.27713173266E-01 0.34284512225E-01 0.41994399395E-01 0.50691551205E-01
 0.60315222117E-01 0.70556202867E-01 0.81064223774E-01 0.91352491934E-01 0.10088964686E+00
 0.10909387739E+00 0.11541412711E+00 0.11940301011E+00 0.12076476880E+00 0.11939906656E+00
 0.11540498565E+00 0.10908591653E+00 0.10088165814E+00 0.91351709143E-01 0.81057057996E-01
 0.70554444008E-01 0.60313019664E-01 0.50685933222E-01 0.41952617198E-01 0.34280356358E-01
 0.18210137756E-01 0.14932928381E-01 0.12323548826E-01 0.10299019677E-01 0.88017277812E-02
 0.77752122319E-02 0.71131882130E-02 0.67524055111E-02 0.66303663827E-02 0.66680892266E-02
 0.68259791800E-02 0.70381920496E-02 0.72695561181E-02 0.74751411844E-02 0.76301063271E-02
 0.77119637457E-02 0.77137329454E-02 0.76300392578E-02 0.74742825827E-02 0.72685088835E-02
 0.70422896313E-02 0.68154010575E-02 0.66632078260E-02 0.66079004764E-02 0.67503226995E-02
 0.71194385803E-02 0.77768402392E-02 0.88570705946E-02 0.10296660981E-01 0.12266849666E-01
 0.14931426795E-01 0.18265765686E-01 0.22209222613E-01 0.26930800624E-01 0.32337436929E-01
 0.38350632605E-01 0.44865151430E-01 0.51617307273E-01 0.58367873535E-01 0.64756739791E-01
 0.70448762185E-01 0.75090918624E-01 0.78382565962E-01 0.80090023268E-01 0.80093569004E-01
 0.78387078604E-01 0.75100020080E-01 0.70452581580E-01 0.64763184077E-01 0.58364459440E-01
 0.51625390255E-01 0.44863762917E-01 0.38358113965E-01 0.32340652394E-01 0.26936150339E-01
 0.22211931333E-01 0.12640650863E-01 0.10823563949E-01 0.94687090175E-02 0.85512609791E-02
 0.80114723389E-02 0.77743948546E-02 0.78145912708E-02 0.80658956085E-02 0.84658820298E-02
 0.89714120100E-02 0.95101661502E-02 0.10041738939E-01 0.10508677924E-01 0.10877039378E-01
 0.11110235073E-01 0.11191516665E-01 0.11109323131E-01 0.10878048462E-01 0.10509178853E-01
 0.10050893185E-01 0.95177052027E-02 0.89778758086E-02 0.84650484731E-02 0.80681027349E-02
 0.78253005569E-02 0.77768402390E-02 0.80520221237E-02 0.85480491061E-02 0.94301253330E-02
 0.10824616620E-01 0.12683154531E-01 0.14931426795E-01 0.17697221586E-01 0.21012427140E-01
 0.24714405774E-01 0.28805849549E-01 0.33109047626E-01 0.37479056655E-01 0.41726316752E-01
 0.45619336919E-01 0.48938560375E-01 0.51478867483E-01 0.53078666743E-01 0.53619788119E-01
 0.53074152250E-01 0.51474502951E-01 0.48932353676E-01 0.45614480758E-01 0.41722171494E-01
 0.37486896979E-01 0.33118397915E-01 0.28816258901E-01 0.24749610653E-01 0.21016469552E-01
 0.17725248805E-01 0.14931786177E-01 0.97038003803E-02 0.89713384591E-02 0.86018165572E-02
 0.85507228830E-02 0.88022322976E-02 0.93315742679E-02 0.10069379327E-01 0.10961860638E-01
 0.11960335447E-01 0.12978813640E-01 0.13972436608E-01 0.14856419998E-01 0.15585901443E-01
 0.16096847514E-01 0.16365266288E-01 0.16361903881E-01 0.16099479853E-01 0.15579906223E-01
 0.14855601805E-01 0.13970468544E-01 0.12988871753E-01 0.11959096373E-01 0.10969675714E-01
 0.10088524573E-01 0.93393733182E-02 0.88570705946E-02 0.85480491066E-02 0.85499234660E-02
 0.89753933426E-02 0.97442543520E-02 0.10824616620E-01 0.12266849666E-01 0.14171394083E-01
 0.16367174446E-01 0.18838422770E-01 0.21530998934E-01 0.24296231315E-01 0.27062845040E-01
 0.29661437088E-01 0.31982833244E-01 0.33856203188E-01 0.35180310712E-01 0.35863935677E-01
 0.35866903280E-01 0.35183142886E-01 0.33860136546E-01 0.31985662984E-01 0.29673206947E-01
 0.27068152121E-01 0.24299259031E-01 0.21517026976E-01 0.18836114104E-01 0.16355055710E-01
 0.14172974300E-01 0.12323836219E-01 0.10824399221E-01 0.88073116444E-02 0.89716226292E-02
 0.94676740162E-02 0.10300074899E-01 0.11422585755E-01 0.12779872976E-01 0.14336709489E-01
 0.16026196056E-01 0.17755502912E-01 0.19454536587E-01 0.21008133534E-01 0.22339926285E-01
 0.23354816218E-01 0.23996185719E-01 0.24214268117E-01 0.23997750399E-01 0.23358024763E-01
 0.22341054590E-01 0.21010854268E-01 0.19460704668E-01 0.17775976869E-01 0.16037640602E-01
 0.14366282931E-01 0.12784455144E-01 0.11442941962E-01 0.10296660980E-01 0.94301253357E-02
 0.89753933426E-02 0.88290456915E-02 0.89753933389E-02 0.94301253348E-02 0.10296660980E-01
 0.11442941962E-01 0.12784455144E-01 0.14366282931E-01 0.16037640602E-01 0.17775976869E-01
 0.19460704668E-01 0.21010854268E-01 0.22341054590E-01 0.23358024763E-01 0.23997750399E-01