 Entering Gaussian System, Link 0=/apps/rhel5/g09-C.01/g09/g09
 Initial command:
 /apps/rhel5/g09-C.01/g09/l1.exe /scratch/scratch95/t/tmanz/gaussian/Gau-14527.inp -scrdir=/scratch/scratch95/t/tmanz/gaussian/
 Entering Link 1 = /apps/rhel5/g09-C.01/g09/l1.exe PID=     14532.
  
 Copyright (c) 1988,1990,1992,1993,1995,1998,2003,2009,2011,
            Gaussian, Inc.  All Rights Reserved.
  
 This is part of the Gaussian(R) 09 program.  It is based on
 the Gaussian(R) 03 system (copyright 2003, Gaussian, Inc.),
 the Gaussian(R) 98 system (copyright 1998, Gaussian, Inc.),
 the Gaussian(R) 94 system (copyright 1995, Gaussian, Inc.),
 the Gaussian 92(TM) system (copyright 1992, Gaussian, Inc.),
 the Gaussian 90(TM) system (copyright 1990, Gaussian, Inc.),
 the Gaussian 88(TM) system (copyright 1988, Gaussian, Inc.),
 the Gaussian 86(TM) system (copyright 1986, Carnegie Mellon
 University), and the Gaussian 82(TM) system (copyright 1983,
 Carnegie Mellon University). Gaussian is a federally registered
 trademark of Gaussian, Inc.
  
 This software contains proprietary and confidential information,
 including trade secrets, belonging to Gaussian, Inc.
  
 This software is provided under written license and may be
 used, copied, transmitted, or stored only in accord with that
 written license.
  
 The following legend is applicable only to US Government
 contracts under FAR:
  
                    RESTRICTED RIGHTS LEGEND
  
 Use, reproduction and disclosure by the US Government is
 subject to restrictions as set forth in subparagraphs (a)
 and (c) of the Commercial Computer Software - Restricted
 Rights clause in FAR 52.227-19.
  
 Gaussian, Inc.
 340 Quinnipiac St., Bldg. 40, Wallingford CT 06492
  
  
 ---------------------------------------------------------------
 Warning -- This program may not be used in any manner that
 competes with the business of Gaussian, Inc. or will provide
 assistance to any competitor of Gaussian, Inc.  The licensee
 of this program is prohibited from giving any competitor of
 Gaussian, Inc. access to this program.  By using this program,
 the user acknowledges that Gaussian, Inc. is engaged in the
 business of creating and licensing software in the field of
 computational chemistry and represents and warrants to the
 licensee that it is not a competitor of Gaussian, Inc. and that
 it will not use this program in any manner prohibited above.
 ---------------------------------------------------------------
  

 Cite this work as:
 Gaussian 09, Revision C.01,
 M. J. Frisch, G. W. Trucks, H. B. Schlegel, G. E. Scuseria, 
 M. A. Robb, J. R. Cheeseman, G. Scalmani, V. Barone, B. Mennucci, 
 G. A. Petersson, H. Nakatsuji, M. Caricato, X. Li, H. P. Hratchian, 
 A. F. Izmaylov, J. Bloino, G. Zheng, J. L. Sonnenberg, M. Hada, 
 M. Ehara, K. Toyota, R. Fukuda, J. Hasegawa, M. Ishida, T. Nakajima, 
 Y. Honda, O. Kitao, H. Nakai, T. Vreven, J. A. Montgomery, Jr., 
 J. E. Peralta, F. Ogliaro, M. Bearpark, J. J. Heyd, E. Brothers, 
 K. N. Kudin, V. N. Staroverov, T. Keith, R. Kobayashi, J. Normand, 
 K. Raghavachari, A. Rendell, J. C. Burant, S. S. Iyengar, J. Tomasi, 
 M. Cossi, N. Rega, J. M. Millam, M. Klene, J. E. Knox, J. B. Cross, 
 V. Bakken, C. Adamo, J. Jaramillo, R. Gomperts, R. E. Stratmann, 
 O. Yazyev, A. J. Austin, R. Cammi, C. Pomelli, J. W. Ochterski, 
 R. L. Martin, K. Morokuma, V. G. Zakrzewski, G. A. Voth, 
 P. Salvador, J. J. Dannenberg, S. Dapprich, A. D. Daniels, 
 O. Farkas, J. B. Foresman, J. V. Ortiz, J. Cioslowski, 
 and D. J. Fox, Gaussian, Inc., Wallingford CT, 2010.
 
 ******************************************
 Gaussian 09:  EM64L-G09RevC.01 23-Sep-2011
                 6-Oct-2012 
 ******************************************
 %chk=ozone+1_PW91.chk
 %mem=2000MB
 Default route: MaxDisk=200GB
 ----------------------------------------------------------------------
 #P opt PW91PW91/6-311++G** geom=connectivity guess=mix # scf=(fermi,ma
 xcycle=400) output=wfx
 ----------------------------------------------------------------------
 1/14=-1,18=20,19=15,26=3,38=1,57=2/1,3;
 2/9=110,12=2,17=6,18=5,40=1/2;
 3/5=4,6=6,7=1111,11=2,16=1,25=1,30=1,71=1,74=608/1,2,3;
 4/13=-1/1;
 5/5=2,7=400,22=13,38=5/2;
 6/7=2,8=2,9=2,10=2,28=1/1;
 7//1,2,3,16;
 1/14=-1,18=20,19=15/3(2);
 2/9=110/2;
 99/6=200/99;
 2/9=110/2;
 3/5=4,6=6,7=1111,11=2,16=1,25=1,30=1,71=1,74=608/1,2,3;
 4/5=5,16=3/1;
 5/5=2,7=400,22=13,38=5/2;
 7//1,2,3,16;
 1/14=-1,18=20,19=15/3(-5);
 2/9=110/2;
 6/7=2,8=2,9=2,10=2,19=2,28=1/1;
 99/6=200,9=1/99;
 Leave Link    1 at Sat Oct  6 02:12:54 2012, MaxMem=  262144000 cpu:       0.1
 (Enter /apps/rhel5/g09-C.01/g09/l101.exe)
 -------------------
 Title Card Required
 -------------------
 Charge =  1 Multiplicity = 2
 Symbolic Z-Matrix:
 O
 O                    1    B1
 O                    1    B2       2    A1
       Variables:
  B1                    1.21                     
  B2                    1.21                     
  A1                  134.                       
 
 NAtoms=      3 NQM=        0 NQMF=       0 NMMI=      3 NMMIF=      0
                NMic=       0 NMicF=      0.
                    Isotopes and Nuclear Properties:
 (Nuclear quadrupole moments (NQMom) in fm**2, nuclear magnetic moments (NMagM)
  in nuclear magnetons)

  Atom         1           2           3
 IAtWgt=          16          16          16
 AtmWgt=  15.9949146  15.9949146  15.9949146
 NucSpn=           0           0           0
 AtZEff=   0.0000000   0.0000000   0.0000000
 NQMom=    0.0000000   0.0000000   0.0000000
 NMagM=    0.0000000   0.0000000   0.0000000
 Leave Link  101 at Sat Oct  6 02:12:54 2012, MaxMem=  262144000 cpu:       0.2
 (Enter /apps/rhel5/g09-C.01/g09/l103.exe)

 GradGradGradGradGradGradGradGradGradGradGradGradGradGradGradGradGradGrad
 Berny optimization.
 Initialization pass.
                           ----------------------------
                           !    Initial Parameters    !
                           ! (Angstroms and Degrees)  !
 --------------------------                            --------------------------
 ! Name  Definition              Value          Derivative Info.                !
 --------------------------------------------------------------------------------
 ! R1    R(1,2)                  1.21           estimate D2E/DX2                !
 ! R2    R(1,3)                  1.21           estimate D2E/DX2                !
 ! A1    A(2,1,3)              134.0            estimate D2E/DX2                !
 --------------------------------------------------------------------------------
 Trust Radius=3.00D-01 FncErr=1.00D-07 GrdErr=1.00D-06
 Number of steps in this run=     20 maximum allowed number of steps=    100.
 GradGradGradGradGradGradGradGradGradGradGradGradGradGradGradGradGradGrad

 Leave Link  103 at Sat Oct  6 02:12:54 2012, MaxMem=  262144000 cpu:       0.0
 (Enter /apps/rhel5/g09-C.01/g09/l202.exe)
                          Input orientation:                          
 ---------------------------------------------------------------------
 Center     Atomic      Atomic             Coordinates (Angstroms)
 Number     Number       Type             X           Y           Z
 ---------------------------------------------------------------------
      1          8           0        0.000000    0.000000    0.000000
      2          8           0        0.000000    0.000000    1.210000
      3          8           0        0.870401    0.000000   -0.840537
 ---------------------------------------------------------------------
                    Distance matrix (angstroms):
                    1          2          3
     1  O    0.000000
     2  O    1.210000   0.000000
     3  O    1.210000   2.227622   0.000000
 Stoichiometry    O3(1+,2)
 Framework group  C2V[C2(O),SGV(O2)]
 Deg. of freedom     2
 Full point group                 C2V     NOp   4
 Largest Abelian subgroup         C2V     NOp   4
 Largest concise Abelian subgroup C2      NOp   2
                         Standard orientation:                         
 ---------------------------------------------------------------------
 Center     Atomic      Atomic             Coordinates (Angstroms)
 Number     Number       Type             X           Y           Z
 ---------------------------------------------------------------------
      1          8           0        0.000000    0.000000    0.315190
      2          8           0        0.000000    1.113811   -0.157595
      3          8           0        0.000000   -1.113811   -0.157595
 ---------------------------------------------------------------------
 Rotational constants (GHZ):    212.0311966     12.7345138     12.0130165
 Leave Link  202 at Sat Oct  6 02:12:54 2012, MaxMem=  262144000 cpu:       0.0
 (Enter /apps/rhel5/g09-C.01/g09/l301.exe)
 Standard basis: 6-311++G(d,p) (5D, 7F)
 Ernie: Thresh=  0.10000D-02 Tol=  0.10000D-05 Strict=F.
 There are    27 symmetry adapted basis functions of A1  symmetry.
 There are     7 symmetry adapted basis functions of A2  symmetry.
 There are    11 symmetry adapted basis functions of B1  symmetry.
 There are    21 symmetry adapted basis functions of B2  symmetry.
 Integral buffers will be    131072 words long.
 Raffenetti 2 integral format.
 Two-electron integral symmetry is turned on.
    66 basis functions,   108 primitive gaussians,    69 cartesian basis functions
    12 alpha electrons       11 beta electrons
       nuclear repulsion energy        71.1824393097 Hartrees.
 IExCor=  608 DFT=T Ex=PW91 Corr=PW91 ExCW=0 ScaHFX=  0.000000
 ScaDFX=  1.000000  1.000000  1.000000  1.000000 ScalE2=  1.000000  1.000000
 IRadAn=      0 IRanWt=     -1 IRanGd=            0 ICorTp=0
 NAtoms=    3 NActive=    3 NUniq=    2 SFac= 2.25D+00 NAtFMM=   60 NAOKFM=F Big=F
 Leave Link  301 at Sat Oct  6 02:12:55 2012, MaxMem=  262144000 cpu:       0.1
 (Enter /apps/rhel5/g09-C.01/g09/l302.exe)
 NPDir=0 NMtPBC=     1 NCelOv=     1 NCel=       1 NClECP=     1 NCelD=      1
         NCelK=      1 NCelE2=     1 NClLst=     1 CellRange=     0.0.
 One-electron integrals computed using PRISM.
 One-electron integral symmetry used in STVInt
 NBasis=    66 RedAO= T  NBF=    27     7    11    21
 NBsUse=    66 1.00D-06 NBFU=    27     7    11    21
 Precomputing XC quadrature grid using
 IXCGrd= 2 IRadAn=           0 IRanWt=          -1 IRanGd=           0 AccXCQ= 0.00D+00.
 NRdTot=     191 NPtTot=       24138 NUsed=       25527 NTot=       25559
 NSgBfM=    69    69    69    69    69 NAtAll=     3     3.
 Leave Link  302 at Sat Oct  6 02:12:55 2012, MaxMem=  262144000 cpu:       0.2
 (Enter /apps/rhel5/g09-C.01/g09/l303.exe)
 DipDrv:  MaxL=1.
 Leave Link  303 at Sat Oct  6 02:12:55 2012, MaxMem=  262144000 cpu:       0.1
 (Enter /apps/rhel5/g09-C.01/g09/l401.exe)
 Harris functional with IExCor=  608 diagonalized for initial guess.
 ExpMin= 8.45D-02 ExpMax= 8.59D+03 ExpMxC= 1.30D+03 IAcc=2 IRadAn=         4 AccDes= 0.00D+00
 HarFok:  IExCor=  608 AccDes= 0.00D+00 IRadAn=         4 IDoV= 1
 ScaDFX=  1.000000  1.000000  1.000000  1.000000
 FoFCou: FMM=F IPFlag=           0 FMFlag=      100000 FMFlg1=           0
         NFxFlg=           0 DoJE=T BraDBF=F KetDBF=T FulRan=T
         Omega=  0.000000  0.000000  1.000000  0.000000  0.000000 ICntrl=     500 IOpCl=  0
         NMat0=    1 NMatS0=    1 NMatT0=    0 NMatD0=    1 NMtDS0=    0 NMtDT0=    0
         I1Cent=           4 NGrid=           0.
 Petite list used in FoFCou.
 Harris En= -225.197225406083    
 Mixing orbitals, IMix= 1 IMixAn=  0 NRI=1 NE=   12 Coef=  7.07106781D-01  7.07106781D-01
 Mixing orbitals, IMix= 1 IMixAn=  0 NRI=1 NE=   11 Coef= -7.07106781D-01  7.07106781D-01
 Initial guess orbital symmetries:
 Alpha Orbitals:
       Occupied  (A1) (B2) (A1) (A1) (B2) (A1) (B2) (A1) (B1) (A2)
                 (B2) (?A)
       Virtual   (?A) (A1) (A1) (B2) (B1) (A1) (B2) (A1) (A2) (B1)
                 (A1) (B2) (B2) (A1) (B2) (A1) (B1) (A1) (B2) (B2)
                 (A2) (A1) (B1) (B2) (A1) (B2) (A1) (A2) (A1) (B1)
                 (B2) (A1) (A2) (B2) (B1) (A1) (B2) (B1) (A1) (A2)
                 (B2) (A1) (B1) (A1) (B2) (A2) (B2) (A1) (B1) (A1)
                 (B2) (A1) (B2) (A1)
 Beta  Orbitals:
       Occupied  (A1) (B2) (A1) (A1) (B2) (A1) (B2) (A1) (B1) (A2)
                 (?A)
       Virtual   (?A) (B1) (A1) (A1) (B2) (B1) (A1) (B2) (A1) (A2)
                 (B1) (A1) (B2) (B2) (A1) (B2) (A1) (B1) (A1) (B2)
                 (B2) (A2) (A1) (B1) (B2) (A1) (B2) (A1) (A2) (A1)
                 (B1) (B2) (A1) (A2) (B2) (B1) (A1) (B2) (B1) (A1)
                 (A2) (B2) (A1) (B1) (A1) (B2) (A2) (B2) (A1) (B1)
                 (A1) (B2) (A1) (B2) (A1)
 Initial guess <Sx>= 0.0000 <Sy>= 0.0000 <Sz>= 0.5000 <S**2>= 1.0000 S= 0.6180
 Leave Link  401 at Sat Oct  6 02:12:56 2012, MaxMem=  262144000 cpu:       0.3
 (Enter /apps/rhel5/g09-C.01/g09/l502.exe)
 UHF open shell SCF:
 Requested convergence on RMS density matrix=1.00D-08 within 400 cycles.
 Requested convergence on MAX density matrix=1.00D-06.
 Requested convergence on             energy=1.00D-06.
 Level shift goal  0.100 maximum shift  0.100.
 No special actions if energy rises.
 Dynamic level shift is on during FON iterations.
 Using DIIS extrapolation, IDIIS=    10.
 Integral symmetry usage will be decided dynamically.
        25487 words used for storage of precomputed grid.
 Keep J ints in memory in canonical form, NReq=4009522.
 IEnd=      203930 IEndB=      203930 NGot=   262144000 MDV=   259188353
 LenX=   259188353 LenY=   259183151
 Symmetry not used in FoFDir.
 MinBra= 0 MaxBra= 2 Meth= 1.
 IRaf=       0 NMat=   1 IRICut=       1 DoRegI=T DoRafI=F ISym2E= 0 JSym2E=0.
 Integral accuracy reduced to 1.0D-05 until final iterations.
 An orbital has undefined symmetry, so N**3 symmetry is turned off.

 Cycle   1  Pass 0  IDiag  1:
 Density matrix breaks symmetry, PCut= 1.00D-04
 Density matrix has no symmetry -- integrals replicated.
 E= -224.732355664609    
 DIIS: error= 7.54D-02 at cycle   1 NSaved=   1.
 NSaved= 1 IEnMin= 1 EnMin= -224.732355664609     IErMin= 1 ErrMin= 7.54D-02
 ErrMax= 7.54D-02 EMaxC= 1.00D+00 BMatC= 9.51D-01 BMatP= 9.51D-01
 IDIUse=1 WtCom= 1.00D+00 WtEn= 0.00D+00
 Coeff-Com:  0.100D+01
 Coeff:      0.100D+01
 Gap=    -0.003 Goal=     0.100 Shift=    0.100
 T= 2049. Gap= 0.072 NK=0 IS=    1 IE=   66
          NO(<0.9)=   0  NV(>0.1)=   0  12.00e < EF 0.00e >EF  Err=5.4D-11
 Gap=    -0.192 Goal=     0.100 Shift=    0.100
 T= 2049. Gap= 0.118 NK=0 IS=    1 IE=   66
          NO(<0.9)=   0  NV(>0.1)=   0  11.00e < EF 0.00e >EF  Err=1.9D-11
 GapD=   -0.192 DampG=0.250 DampE=0.500 DampFc=0.1250 IDamp=-1.
 Damping current iteration by 1.25D-01
 RMSDP=1.66D-02 MaxDP=2.10D-01              OVMax= 9.54D-01

 Cycle   2  Pass 0  IDiag  1:
 Density matrix breaks symmetry, PCut= 1.00D-04
 Density matrix has no symmetry -- integrals replicated.
 E= -224.803373982251     Delta-E=       -0.071018317642 Rises=F Damp=T
 DIIS: error= 4.58D-02 at cycle   2 NSaved=   2.
 NSaved= 2 IEnMin= 2 EnMin= -224.803373982251     IErMin= 2 ErrMin= 4.58D-02
 ErrMax= 4.58D-02 EMaxC= 1.00D+00 BMatC= 3.51D-01 BMatP= 9.51D-01
 IDIUse=1 WtCom= 1.00D+00 WtEn= 0.00D+00
 Coeff-Com: -0.625D+00 0.163D+01
 Coeff:     -0.625D+00 0.163D+01
 Gap=     0.004 Goal=     0.100 Shift=    0.096
 T= 1965. Gap= 0.108 NK=3 IS=    7 IE=   16
          NO(<0.9)=   0  NV(>0.1)=   0  12.00e < EF 0.00e >EF  Err=0.0D+00
 Gap=    -0.043 Goal=     0.100 Shift=    0.100
 T= 1965. Gap= 0.067 NK=2 IS=    7 IE=   13
          NO(<0.9)=   0  NV(>0.1)=   0  11.00e < EF 0.00e >EF  Err=1.8D-15
 GapD=   -0.043 DampG=0.250 DampE=0.500 DampFc=0.1250 IDamp=-1.
 Damping current iteration by 1.25D-01
 RMSDP=1.04D-02 MaxDP=9.89D-02 DE=-7.10D-02 OVMax= 6.38D-01

 Cycle   3  Pass 0  IDiag  1:
 Density matrix breaks symmetry, PCut= 1.00D-04
 Density matrix has no symmetry -- integrals replicated.
 E= -224.831013268409     Delta-E=       -0.027639286159 Rises=F Damp=T
 DIIS: error= 3.36D-02 at cycle   3 NSaved=   3.
 NSaved= 3 IEnMin= 3 EnMin= -224.831013268409     IErMin= 3 ErrMin= 3.36D-02
 ErrMax= 3.36D-02 EMaxC= 1.00D+00 BMatC= 2.13D-01 BMatP= 3.51D-01
 IDIUse=1 WtCom= 1.00D+00 WtEn= 0.00D+00
 Coeff-Com: -0.364D+00-0.185D+01 0.322D+01
 Coeff:     -0.364D+00-0.185D+01 0.322D+01
 Gap=     0.084 Goal=     0.100 Shift=    0.016
 T= 1822. Gap= 0.088 NK=2 IS=   10 IE=   14
          NO(<0.9)=   0  NV(>0.1)=   0  12.00e < EF 0.00e >EF  Err=1.8D-15
 Gap=     0.067 Goal=     0.100 Shift=    0.033
 T= 1822. Gap= 0.103 NK=3 IS=    7 IE=   14
          NO(<0.9)=   0  NV(>0.1)=   0  11.00e < EF 0.00e >EF  Err=0.0D+00
 GapD=    0.067 DampG=0.500 DampE=0.500 DampFc=0.2500 IDamp=-1.
 Damping current iteration by 2.50D-01
 RMSDP=9.07D-03 MaxDP=7.85D-02 DE=-2.76D-02 OVMax= 1.64D-01

 Cycle   4  Pass 0  IDiag  1:
 Density matrix breaks symmetry, PCut= 1.00D-04
 Density matrix has no symmetry -- integrals replicated.
 E= -224.871174929146     Delta-E=       -0.040161660737 Rises=F Damp=T
 DIIS: error= 3.26D-02 at cycle   4 NSaved=   4.
 NSaved= 4 IEnMin= 4 EnMin= -224.871174929146     IErMin= 4 ErrMin= 3.26D-02
 ErrMax= 3.26D-02 EMaxC= 1.00D+00 BMatC= 1.40D-01 BMatP= 2.13D-01
 IDIUse=1 WtCom= 1.00D+00 WtEn= 0.00D+00
 Coeff-Com: -0.199D+00-0.189D+01 0.198D+01 0.111D+01
 Coeff:     -0.199D+00-0.189D+01 0.198D+01 0.111D+01
 Gap=     0.076 Goal=     0.100 Shift=    0.024
 T= 1627. Gap= 0.099 NK=3 IS=    7 IE=   19
          NO(<0.9)=   0  NV(>0.1)=   0  12.00e < EF 0.00e >EF  Err=0.0D+00
 Gap=     0.065 Goal=     0.100 Shift=    0.035
 T= 1627. Gap= 0.100 NK=3 IS=    7 IE=   14
          NO(<0.9)=   0  NV(>0.1)=   0  11.00e < EF 0.00e >EF  Err=1.8D-15
 GapD=    0.065 DampG=0.500 DampE=0.500 DampFc=0.2500 IDamp=-1.
 Damping current iteration by 2.50D-01
 RMSDP=6.76D-03 MaxDP=5.91D-02 DE=-4.02D-02 OVMax= 4.57D-02

 Cycle   5  Pass 0  IDiag  1:
 Density matrix breaks symmetry, PCut= 1.00D-04
 Density matrix has no symmetry -- integrals replicated.
 E= -224.903618101165     Delta-E=       -0.032443172019 Rises=F Damp=T
 DIIS: error= 2.62D-02 at cycle   5 NSaved=   5.
 NSaved= 5 IEnMin= 5 EnMin= -224.903618101165     IErMin= 5 ErrMin= 2.62D-02
 ErrMax= 2.62D-02 EMaxC= 1.00D+00 BMatC= 8.49D-02 BMatP= 1.40D-01
 IDIUse=1 WtCom= 1.00D+00 WtEn= 0.00D+00
 Coeff-Com: -0.442D-01-0.402D+00 0.104D+01-0.347D+01 0.388D+01
 Coeff:     -0.442D-01-0.402D+00 0.104D+01-0.347D+01 0.388D+01
 Gap=     0.079 Goal=     0.100 Shift=    0.021
 T= 1511. Gap= 0.100 NK=3 IS=    7 IE=   19
          NO(<0.9)=   0  NV(>0.1)=   0  12.00e < EF 0.00e >EF  Err=1.8D-15
 Gap=     0.071 Goal=     0.100 Shift=    0.029
 T= 1511. Gap= 0.099 NK=3 IS=    7 IE=   14
          NO(<0.9)=   0  NV(>0.1)=   0  11.00e < EF 0.00e >EF  Err=1.8D-15
 GapD=    0.071 DampG=0.500 DampE=0.500 DampFc=0.2500 IDamp=-1.
 Damping current iteration by 2.50D-01
 RMSDP=5.15D-03 MaxDP=4.38D-02 DE=-3.24D-02 OVMax= 1.04D-02

 Cycle   6  Pass 0  IDiag  1:
 Density matrix breaks symmetry, PCut= 1.00D-04
 Density matrix has no symmetry -- integrals replicated.
 E= -224.927864948588     Delta-E=       -0.024246847423 Rises=F Damp=T
 DIIS: error= 2.01D-02 at cycle   6 NSaved=   6.
 NSaved= 6 IEnMin= 6 EnMin= -224.927864948588     IErMin= 6 ErrMin= 2.01D-02
 ErrMax= 2.01D-02 EMaxC= 1.00D+00 BMatC= 4.88D-02 BMatP= 8.49D-02
 IDIUse=1 WtCom= 1.00D+00 WtEn= 0.00D+00
 Coeff-Com:  0.199D-01 0.639D-01 0.965D-01 0.670D+00-0.529D+01 0.544D+01
 Coeff:      0.199D-01 0.639D-01 0.965D-01 0.670D+00-0.529D+01 0.544D+01
 Gap=     0.081 Goal=     0.100 Shift=    0.019
 T= 1417. Gap= 0.100 NK=3 IS=    7 IE=   18
          NO(<0.9)=   0  NV(>0.1)=   0  12.00e < EF 0.00e >EF  Err=0.0D+00
 Gap=     0.071 Goal=     0.100 Shift=    0.029
 T= 1417. Gap= 0.100 NK=3 IS=    7 IE=   14
          NO(<0.9)=   0  NV(>0.1)=   0  11.00e < EF 0.00e >EF  Err=3.6D-15
 GapD=    0.071 DampG=0.500 DampE=0.500 DampFc=0.2500 IDamp=-1.
 Damping current iteration by 2.50D-01
 RMSDP=3.98D-03 MaxDP=3.23D-02 DE=-2.42D-02 OVMax= 1.14D-02

 Cycle   7  Pass 0  IDiag  1:
 Density matrix breaks symmetry, PCut= 1.00D-04
 Density matrix has no symmetry -- integrals replicated.
 E= -224.945689577982     Delta-E=       -0.017824629394 Rises=F Damp=T
 DIIS: error= 1.52D-02 at cycle   7 NSaved=   7.
 NSaved= 7 IEnMin= 7 EnMin= -224.945689577982     IErMin= 7 ErrMin= 1.52D-02
 ErrMax= 1.52D-02 EMaxC= 1.00D+00 BMatC= 2.78D-02 BMatP= 4.88D-02
 IDIUse=1 WtCom= 1.00D+00 WtEn= 0.00D+00
 Coeff-Com:  0.235D-01-0.148D+00 0.611D-01 0.103D+01-0.144D+01-0.311D+01
 Coeff-Com:  0.458D+01
 Coeff:      0.235D-01-0.148D+00 0.611D-01 0.103D+01-0.144D+01-0.311D+01
 Coeff:      0.458D+01
 Gap=     0.081 Goal=     0.100 Shift=    0.019
 T= 1267. Gap= 0.100 NK=3 IS=    7 IE=   19
          NO(<0.9)=   0  NV(>0.1)=   0  12.00e < EF 0.00e >EF  Err=1.8D-15
 Gap=     0.071 Goal=     0.100 Shift=    0.029
 T= 1267. Gap= 0.100 NK=3 IS=    7 IE=   14
          NO(<0.9)=   0  NV(>0.1)=   0  11.00e < EF 0.00e >EF  Err=1.8D-15
 GapD=    0.071 DampG=0.500 DampE=0.500 DampFc=0.2500 IDamp=-1.
 Damping current iteration by 2.50D-01
 RMSDP=2.99D-03 MaxDP=2.43D-02 DE=-1.78D-02 OVMax= 8.54D-03

 Cycle   8  Pass 0  IDiag  1:
 Density matrix breaks symmetry, PCut= 1.00D-04
 Density matrix has no symmetry -- integrals replicated.
 E= -224.958827027755     Delta-E=       -0.013137449773 Rises=F Damp=T
 DIIS: error= 1.15D-02 at cycle   8 NSaved=   8.
 NSaved= 8 IEnMin= 8 EnMin= -224.958827027755     IErMin= 8 ErrMin= 1.15D-02
 ErrMax= 1.15D-02 EMaxC= 1.00D+00 BMatC= 1.58D-02 BMatP= 2.78D-02
 IDIUse=1 WtCom= 1.00D+00 WtEn= 0.00D+00
 Coeff-Com: -0.720D-02 0.306D-01-0.938D-01 0.407D+00 0.432D+00-0.230D+01
 Coeff-Com: -0.142D+01 0.395D+01
 Coeff:     -0.720D-02 0.306D-01-0.938D-01 0.407D+00 0.432D+00-0.230D+01
 Coeff:     -0.142D+01 0.395D+01
 Gap=     0.081 Goal=     0.100 Shift=    0.019
 T= 1103. Gap= 0.100 NK=3 IS=    7 IE=   18
          NO(<0.9)=   0  NV(>0.1)=   0  12.00e < EF 0.00e >EF  Err=0.0D+00
 Gap=     0.071 Goal=     0.100 Shift=    0.029
 T= 1103. Gap= 0.100 NK=3 IS=    7 IE=   14
          NO(<0.9)=   0  NV(>0.1)=   0  11.00e < EF 0.00e >EF  Err=0.0D+00
 GapD=    0.071 DampG=0.500 DampE=0.500 DampFc=0.2500 IDamp=-1.
 Damping current iteration by 2.50D-01
 RMSDP=2.26D-03 MaxDP=1.81D-02 DE=-1.31D-02 OVMax= 5.37D-03

 Cycle   9  Pass 0  IDiag  1:
 Density matrix breaks symmetry, PCut= 1.00D-04
 Density matrix has no symmetry -- integrals replicated.
 E= -224.968563902234     Delta-E=       -0.009736874479 Rises=F Damp=T
 DIIS: error= 8.60D-03 at cycle   9 NSaved=   9.
 NSaved= 9 IEnMin= 9 EnMin= -224.968563902234     IErMin= 9 ErrMin= 8.60D-03
 ErrMax= 8.60D-03 EMaxC= 1.00D+00 BMatC= 8.88D-03 BMatP= 1.58D-02
 IDIUse=1 WtCom= 1.00D+00 WtEn= 0.00D+00
 Coeff-Com: -0.637D-03-0.455D-01 0.177D-01-0.197D+00 0.114D+01-0.216D+00
 Coeff-Com: -0.135D+01-0.393D+01 0.558D+01
 Coeff:     -0.637D-03-0.455D-01 0.177D-01-0.197D+00 0.114D+01-0.216D+00
 Coeff:     -0.135D+01-0.393D+01 0.558D+01
 Gap=     0.081 Goal=     0.100 Shift=    0.019
 T=  934. Gap= 0.100 NK=3 IS=    7 IE=   18
          NO(<0.9)=   0  NV(>0.1)=   0  12.00e < EF 0.00e >EF  Err=1.8D-15
 Gap=     0.071 Goal=     0.100 Shift=    0.029
 T=  934. Gap= 0.100 NK=3 IS=    7 IE=   14
          NO(<0.9)=   0  NV(>0.1)=   0  11.00e < EF 0.00e >EF  Err=1.8D-15
 GapD=    0.071 DampG=0.500 DampE=1.000 DampFc=0.5000 IDamp=-1.
 Damping current iteration by 5.00D-01
 RMSDP=1.70D-03 MaxDP=1.36D-02 DE=-9.74D-03 OVMax= 4.36D-03

 Cycle  10  Pass 0  IDiag  1:
 Density matrix breaks symmetry, PCut= 1.00D-04
 Density matrix has no symmetry -- integrals replicated.
 E= -224.982961579694     Delta-E=       -0.014397677460 Rises=F Damp=T
 DIIS: error= 4.31D-03 at cycle  10 NSaved=  10.
 NSaved=10 IEnMin=10 EnMin= -224.982961579694     IErMin=10 ErrMin= 4.31D-03
 ErrMax= 4.31D-03 EMaxC= 1.00D+00 BMatC= 2.22D-03 BMatP= 8.88D-03
 IDIUse=1 WtCom= 1.00D+00 WtEn= 0.00D+00
 Coeff-Com:  0.165D-02-0.273D-02-0.211D-02-0.749D-01 0.960D-01 0.386D+00
 Coeff-Com:  0.577D+00-0.290D+01 0.978D+00 0.194D+01
 Coeff:      0.165D-02-0.273D-02-0.211D-02-0.749D-01 0.960D-01 0.386D+00
 Coeff:      0.577D+00-0.290D+01 0.978D+00 0.194D+01
 Gap=     0.081 Goal=     0.100 Shift=    0.019
 T=  713. Gap= 0.100 NK=3 IS=    7 IE=   18
          NO(<0.9)=   0  NV(>0.1)=   0  12.00e < EF 0.00e >EF  Err=0.0D+00
 Gap=     0.071 Goal=     0.100 Shift=    0.029
 T=  713. Gap= 0.100 NK=3 IS=    7 IE=   14
          NO(<0.9)=   0  NV(>0.1)=   0  11.00e < EF 0.00e >EF  Err=1.8D-15
 GapD=    0.071 DampG=0.500 DampE=1.000 DampFc=0.5000 IDamp=-1.
 Damping current iteration by 5.00D-01
 RMSDP=8.48D-04 MaxDP=6.80D-03 DE=-1.44D-02 OVMax= 1.12D-03

 Cycle  11  Pass 0  IDiag  1:
 Density matrix breaks symmetry, PCut= 1.00D-04
 Density matrix has no symmetry -- integrals replicated.
 E= -224.990070259242     Delta-E=       -0.007108679548 Rises=F Damp=T
 DIIS: error= 2.14D-03 at cycle  11 NSaved=  11.
 NSaved=11 IEnMin=11 EnMin= -224.990070259242     IErMin=11 ErrMin= 2.14D-03
 ErrMax= 2.14D-03 EMaxC= 1.00D+00 BMatC= 5.49D-04 BMatP= 2.22D-03
 IDIUse=1 WtCom= 1.00D+00 WtEn= 0.00D+00
 Coeff-Com:  0.191D-02-0.662D-03-0.239D-03-0.210D-02-0.110D+00 0.100D+00
 Coeff-Com:  0.635D+00-0.910D+00 0.199D+00-0.110D+01 0.219D+01
 Coeff:      0.191D-02-0.662D-03-0.239D-03-0.210D-02-0.110D+00 0.100D+00
 Coeff:      0.635D+00-0.910D+00 0.199D+00-0.110D+01 0.219D+01
 Gap=     0.081 Goal=     0.100 Shift=    0.019
 T=  423. Gap= 0.100 NK=3 IS=    7 IE=   18
          NO(<0.9)=   0  NV(>0.1)=   0  12.00e < EF 0.00e >EF  Err=0.0D+00
 Gap=     0.071 Goal=     0.100 Shift=    0.029
 T=  423. Gap= 0.100 NK=3 IS=    7 IE=   14
          NO(<0.9)=   0  NV(>0.1)=   0  11.00e < EF 0.00e >EF  Err=0.0D+00
 RMSDP=4.23D-04 MaxDP=3.40D-03 DE=-7.11D-03 OVMax= 6.36D-04

 Cycle  12  Pass 0  IDiag  1:
 Density matrix breaks symmetry, PCut= 1.00D-04
 Density has only Abelian symmetry.
 E= -224.997118778864     Delta-E=       -0.007048519623 Rises=F Damp=F
 DIIS: error= 1.22D-05 at cycle  12 NSaved=  12.
 NSaved=12 IEnMin=12 EnMin= -224.997118778864     IErMin=12 ErrMin= 1.22D-05
 ErrMax= 1.22D-05 EMaxC= 1.00D+00 BMatC= 2.69D-08 BMatP= 5.49D-04
 IDIUse=1 WtCom= 1.00D+00 WtEn= 0.00D+00
 Coeff-Com:  0.276D-03 0.485D-04-0.492D-03-0.386D-02 0.967D-02-0.176D-01
 Coeff-Com:  0.594D-01-0.892D-01 0.514D-01-0.144D+00 0.247D+00 0.888D+00
 Coeff:      0.276D-03 0.485D-04-0.492D-03-0.386D-02 0.967D-02-0.176D-01
 Coeff:      0.594D-01-0.892D-01 0.514D-01-0.144D+00 0.247D+00 0.888D+00
 Gap=     0.081 Goal=     0.100 Shift=    0.019
 Gap=     0.071 Goal=     0.100 Shift=    0.029
 RMSDP=3.58D-06 MaxDP=4.17D-05 DE=-7.05D-03 OVMax= 2.39D-04

 Initial convergence to 1.0D-05 achieved.  Increase integral accuracy.
 Cycle  13  Pass 1  IDiag  1:
 E= -224.997058849514     Delta-E=        0.000059929350 Rises=F Damp=F
 DIIS: error= 1.60D-05 at cycle   1 NSaved=   1.
 NSaved= 1 IEnMin= 1 EnMin= -224.997058849514     IErMin= 1 ErrMin= 1.60D-05
 ErrMax= 1.60D-05 EMaxC= 1.00D+00 BMatC= 5.24D-08 BMatP= 5.24D-08
 IDIUse=1 WtCom= 1.00D+00 WtEn= 0.00D+00
 Coeff-Com:  0.100D+01
 Coeff:      0.100D+01
 Gap=     0.081 Goal=   None    Shift=    0.000
 Gap=     0.071 Goal=   None    Shift=    0.000
 RMSDP=3.58D-06 MaxDP=4.17D-05 DE= 5.99D-05 OVMax= 1.85D-04

 Cycle  14  Pass 1  IDiag  1:
 E= -224.997149749251     Delta-E=       -0.000090899737 Rises=F Damp=F
 DIIS: error= 6.61D-06 at cycle   2 NSaved=   2.
 NSaved= 2 IEnMin= 2 EnMin= -224.997149749251     IErMin= 2 ErrMin= 6.61D-06
 ErrMax= 6.61D-06 EMaxC= 1.00D+00 BMatC= 7.09D-09 BMatP= 5.24D-08
 IDIUse=1 WtCom= 1.00D+00 WtEn= 0.00D+00
 Coeff-Com:  0.172D+00 0.828D+00
 Coeff:      0.172D+00 0.828D+00
 Gap=     0.081 Goal=     0.100 Shift=    0.019
 Gap=     0.071 Goal=     0.100 Shift=    0.029
 RMSDP=7.31D-07 MaxDP=1.32D-05 DE=-9.09D-05 OVMax= 2.60D-05

 Cycle  15  Pass 1  IDiag  1:
 E= -224.997149748845     Delta-E=        0.000000000406 Rises=F Damp=F
 DIIS: error= 1.00D-05 at cycle   3 NSaved=   3.
 NSaved= 3 IEnMin= 2 EnMin= -224.997149749251     IErMin= 2 ErrMin= 6.61D-06
 ErrMax= 1.00D-05 EMaxC= 1.00D+00 BMatC= 1.14D-08 BMatP= 7.09D-09
 IDIUse=1 WtCom= 1.00D+00 WtEn= 0.00D+00
 Coeff-Com:  0.611D-01 0.549D+00 0.389D+00
 Coeff:      0.611D-01 0.549D+00 0.389D+00
 Gap=     0.081 Goal=     0.100 Shift=    0.019
 Gap=     0.071 Goal=     0.100 Shift=    0.029
 RMSDP=4.57D-07 MaxDP=8.60D-06 DE= 4.06D-10 OVMax= 2.08D-05

 Cycle  16  Pass 1  IDiag  1:
 E= -224.997149750311     Delta-E=       -0.000000001466 Rises=F Damp=F
 DIIS: error= 3.32D-06 at cycle   4 NSaved=   4.
 NSaved= 4 IEnMin= 4 EnMin= -224.997149750311     IErMin= 4 ErrMin= 3.32D-06
 ErrMax= 3.32D-06 EMaxC= 1.00D+00 BMatC= 2.43D-09 BMatP= 7.09D-09
 IDIUse=1 WtCom= 1.00D+00 WtEn= 0.00D+00
 Coeff-Com:  0.107D-01 0.204D+00 0.298D+00 0.488D+00
 Coeff:      0.107D-01 0.204D+00 0.298D+00 0.488D+00
 Gap=     0.081 Goal=     0.100 Shift=    0.019
 Gap=     0.071 Goal=     0.100 Shift=    0.029
 RMSDP=1.60D-07 MaxDP=2.59D-06 DE=-1.47D-09 OVMax= 6.68D-06

 Cycle  17  Pass 1  IDiag  1:
 E= -224.997149750678     Delta-E=       -0.000000000367 Rises=F Damp=F
 DIIS: error= 2.86D-07 at cycle   5 NSaved=   5.
 NSaved= 5 IEnMin= 5 EnMin= -224.997149750678     IErMin= 5 ErrMin= 2.86D-07
 ErrMax= 2.86D-07 EMaxC= 1.00D+00 BMatC= 1.61D-11 BMatP= 2.43D-09
 IDIUse=1 WtCom= 1.00D+00 WtEn= 0.00D+00
 Coeff-Com: -0.488D-03-0.410D-01-0.318D-03 0.239D-01 0.102D+01
 Coeff:     -0.488D-03-0.410D-01-0.318D-03 0.239D-01 0.102D+01
 Gap=     0.081 Goal=     0.100 Shift=    0.019
 Gap=     0.071 Goal=     0.100 Shift=    0.029
 RMSDP=3.33D-08 MaxDP=4.03D-07 DE=-3.67D-10 OVMax= 9.09D-07

 Cycle  18  Pass 1  IDiag  1:
 E= -224.997149750682     Delta-E=       -0.000000000004 Rises=F Damp=F
 DIIS: error= 7.90D-08 at cycle   6 NSaved=   6.
 NSaved= 6 IEnMin= 6 EnMin= -224.997149750682     IErMin= 6 ErrMin= 7.90D-08
 ErrMax= 7.90D-08 EMaxC= 1.00D+00 BMatC= 1.20D-12 BMatP= 1.61D-11
 IDIUse=1 WtCom= 1.00D+00 WtEn= 0.00D+00
 Coeff-Com: -0.970D-04-0.147D-01-0.673D-02 0.371D-02 0.265D+00 0.752D+00
 Coeff:     -0.970D-04-0.147D-01-0.673D-02 0.371D-02 0.265D+00 0.752D+00
 Gap=     0.081 Goal=     0.100 Shift=    0.019
 Gap=     0.071 Goal=     0.100 Shift=    0.029
 RMSDP=9.21D-09 MaxDP=1.24D-07 DE=-3.52D-12 OVMax= 2.73D-07

 SCF Done:  E(UPW91-PW91) =  -224.997149751     A.U. after   18 cycles
             Convg  =    0.9214D-08             -V/T =  2.0009
 <Sx>= 0.0000 <Sy>= 0.0000 <Sz>= 0.5000 <S**2>= 0.7521 S= 0.5011
 <L.S>= 0.000000000000E+00
 KE= 2.247916249339D+02 PE=-6.655968233340D+02 EE= 1.446256093397D+02
 Annihilation of the first spin contaminant:
 S**2 before annihilation     0.7521,   after     0.7500
 Leave Link  502 at Sat Oct  6 02:13:00 2012, MaxMem=  262144000 cpu:       3.8
 (Enter /apps/rhel5/g09-C.01/g09/l601.exe)
 Copying SCF densities to generalized density rwf, IOpCl= 1 IROHF=0.

 **********************************************************************

            Population analysis using the SCF density.

 **********************************************************************

 Orbital symmetries:
 Alpha Orbitals:
       Occupied  (A1) (B2) (A1) (A1) (B2) (A1) (B1) (A1) (B2) (A2)
                 (B2) (A1)
       Virtual   (B1) (A1) (A1) (B2) (B1) (A1) (B2) (A1) (B2) (A2)
                 (A1) (B1) (B2) (A1) (B2) (A1) (B1) (A1) (B2) (B2)
                 (A2) (A1) (B1) (B2) (A1) (B2) (A1) (A2) (A1) (B1)
                 (B2) (A1) (A2) (B2) (B1) (A1) (B2) (B1) (A1) (A2)
                 (B2) (A1) (B1) (A1) (B2) (A2) (B2) (A1) (B1) (A1)
                 (B2) (A1) (A1) (B2)
 Beta  Orbitals:
       Occupied  (A1) (B2) (A1) (A1) (B2) (A1) (B1) (A1) (B2) (A2)
                 (B2)
       Virtual   (A1) (B1) (A1) (A1) (B2) (B1) (A1) (B2) (A1) (A2)
                 (B2) (A1) (B1) (B2) (A1) (B2) (B1) (A1) (A1) (B2)
                 (A2) (B2) (A1) (B1) (B2) (A1) (B2) (A1) (A2) (A1)
                 (B1) (B2) (A1) (A2) (B2) (B1) (A1) (B2) (B1) (A1)
                 (A2) (B2) (A1) (B1) (A1) (B2) (A2) (B2) (B1) (A1)
                 (A1) (B2) (A1) (A1) (B2)
 The electronic state is 2-A1.
 Alpha  occ. eigenvalues --  -19.45262 -19.30234 -19.30233  -1.70716  -1.47852
 Alpha  occ. eigenvalues --   -1.06997  -0.95026  -0.93981  -0.93092  -0.72034
 Alpha  occ. eigenvalues --   -0.71253  -0.65966
 Alpha virt. eigenvalues --   -0.57833  -0.35286  -0.18962  -0.17417  -0.11894
 Alpha virt. eigenvalues --   -0.11754  -0.08944  -0.04068  -0.02712  -0.02255
 Alpha virt. eigenvalues --    0.00565   0.02255   0.05164   0.11875   0.15435
 Alpha virt. eigenvalues --    0.54931   0.55935   0.61443   0.61990   0.64825
 Alpha virt. eigenvalues --    0.64945   0.66910   0.69956   0.74290   0.82051
 Alpha virt. eigenvalues --    1.07604   1.11245   1.61362   1.83959   1.88293
 Alpha virt. eigenvalues --    2.04276   2.16006   2.23771   2.24762   2.25994
 Alpha virt. eigenvalues --    2.37048   2.67888   2.70027   2.89897   3.05766
 Alpha virt. eigenvalues --    3.29774   3.49899   4.15214   4.17609   4.24480
 Alpha virt. eigenvalues --    4.40613   4.43889   4.48192   4.48275   5.20923
 Alpha virt. eigenvalues --    5.99366  48.76539  48.89070  48.92919
  Beta  occ. eigenvalues --  -19.44663 -19.29151 -19.29149  -1.69431  -1.45889
  Beta  occ. eigenvalues --   -1.04363  -0.94263  -0.91480  -0.91043  -0.70938
  Beta  occ. eigenvalues --   -0.67672
  Beta virt. eigenvalues --   -0.60576  -0.56711  -0.33905  -0.18257  -0.15604
  Beta virt. eigenvalues --   -0.11407  -0.10573  -0.08548  -0.03757  -0.01983
  Beta virt. eigenvalues --   -0.01536   0.01298   0.02693   0.05521   0.12264
  Beta virt. eigenvalues --    0.15726   0.56493   0.56665   0.62479   0.63098
  Beta virt. eigenvalues --    0.65501   0.66018   0.69283   0.70573   0.75572
  Beta virt. eigenvalues --    0.83032   1.09280   1.12493   1.62018   1.86360
  Beta virt. eigenvalues --    1.89759   2.06556   2.17359   2.26317   2.27058
  Beta virt. eigenvalues --    2.29376   2.40109   2.70899   2.71088   2.92297
  Beta virt. eigenvalues --    3.06700   3.31334   3.52275   4.15997   4.19693
  Beta virt. eigenvalues --    4.27464   4.41602   4.46579   4.49113   4.52351
  Beta virt. eigenvalues --    5.23054   6.00564  48.77412  48.90204  48.94205
          Condensed to atoms (all electrons):
              1          2          3
     1  O    6.987871   0.317277   0.317277
     2  O    0.317277   7.392773  -0.021262
     3  O    0.317277  -0.021262   7.392773
 Mulliken atomic charges:
              1
     1  O    0.377576
     2  O    0.311212
     3  O    0.311212
 Sum of Mulliken atomic charges =   1.00000
 Mulliken charges with hydrogens summed into heavy atoms:
              1
     1  O    0.377576
     2  O    0.311212
     3  O    0.311212
 Sum of Mulliken charges with hydrogens summed into heavy atoms =   1.00000
          Atomic-Atomic Spin Densities.
              1          2          3
     1  O    0.332031  -0.073531  -0.073531
     2  O   -0.073531   0.461793   0.019254
     3  O   -0.073531   0.019254   0.461793
 Mulliken atomic spin densities:
              1
     1  O    0.184968
     2  O    0.407516
     3  O    0.407516
 Sum of Mulliken atomic spin densities =   1.00000
 Electronic spatial extent (au):  <R**2>=            101.7710
 Charge=              1.0000 electrons
 Dipole moment (field-independent basis, Debye):
    X=              0.0000    Y=              0.0000    Z=              0.0058  Tot=              0.0058
 Quadrupole moment (field-independent basis, Debye-Ang):
   XX=            -12.7210   YY=            -10.0584   ZZ=            -13.0404
   XY=              0.0000   XZ=              0.0000   YZ=              0.0000
 Traceless Quadrupole moment (field-independent basis, Debye-Ang):
   XX=             -0.7811   YY=              1.8815   ZZ=             -1.1004
   XY=              0.0000   XZ=              0.0000   YZ=              0.0000
 Octapole moment (field-independent basis, Debye-Ang**2):
  XXX=              0.0000  YYY=              0.0000  ZZZ=              0.1716  XYY=              0.0000
  XXY=              0.0000  XXZ=              0.0620  XZZ=              0.0000  YZZ=              0.0000
  YYZ=             -1.1462  XYZ=              0.0000
 Hexadecapole moment (field-independent basis, Debye-Ang**3):
 XXXX=             -7.7954 YYYY=            -68.4851 ZZZZ=            -12.3449 XXXY=              0.0000
 XXXZ=              0.0000 YYYX=              0.0000 YYYZ=              0.0000 ZZZX=              0.0000
 ZZZY=              0.0000 XXYY=            -13.6315 XXZZ=             -3.3255 YYZZ=            -14.2716
 XXYZ=              0.0000 YYXZ=              0.0000 ZZXY=              0.0000
 N-N= 7.118243930970D+01 E-N=-9.906362508350D+02  KE= 3.354871866501D+02
 Symmetry A1   KE= 2.056625180433D+02
 Symmetry A2   KE= 8.254832490130D+00
 Symmetry B1   KE= 7.343146911443D+00
 Symmetry B2   KE= 1.142266892052D+02
                          Isotropic Fermi Contact Couplings
        Atom                 a.u.       MegaHertz       Gauss      10(-4) cm-1
     1  O(17)              0.40088    -243.01106     -86.71239     -81.05976
     2  O(17)              0.00613      -3.71641      -1.32611      -1.23966
     3  O(17)              0.00613      -3.71641      -1.32611      -1.23966
 --------------------------------------------------------
       Center         ----  Spin Dipole Couplings  ----
                      3XX-RR        3YY-RR        3ZZ-RR
 --------------------------------------------------------
     1   Atom       -0.498677     -0.488040      0.986717
     2   Atom       -0.991182     -1.015104      2.006286
     3   Atom       -0.991182     -1.015104      2.006286
 --------------------------------------------------------
                        XY            XZ            YZ
 --------------------------------------------------------
     1   Atom        0.000000      0.000000      0.000000
     2   Atom        0.000000      0.000000     -0.269245
     3   Atom        0.000000      0.000000      0.269245
 --------------------------------------------------------


 ---------------------------------------------------------------------------------
              Anisotropic Spin Dipole Couplings in Principal Axis System
 ---------------------------------------------------------------------------------

       Atom             a.u.   MegaHertz   Gauss  10(-4) cm-1        Axes

              Baa    -0.4987    36.084    12.876    12.036  1.0000  0.0000  0.0000
     1 O(17)  Bbb    -0.4880    35.314    12.601    11.780  0.0000  1.0000  0.0000
              Bcc     0.9867   -71.398   -25.477   -23.816  0.0000  0.0000  1.0000
 
              Baa    -1.0389    75.175    26.824    25.076  0.0000  0.9961  0.0881
     2 O(17)  Bbb    -0.9912    71.721    25.592    23.924  1.0000  0.0000  0.0000
              Bcc     2.0301  -146.896   -52.416   -48.999  0.0000 -0.0881  0.9961
 
              Baa    -1.0389    75.175    26.824    25.076  0.0000  0.9961 -0.0881
     3 O(17)  Bbb    -0.9912    71.721    25.592    23.924  1.0000  0.0000  0.0000
              Bcc     2.0301  -146.896   -52.416   -48.999  0.0000  0.0881  0.9961
 

 ---------------------------------------------------------------------------------

 No NMR shielding tensors so no spin-rotation constants.
 Leave Link  601 at Sat Oct  6 02:13:00 2012, MaxMem=  262144000 cpu:       0.3
 (Enter /apps/rhel5/g09-C.01/g09/l701.exe)
 Compute integral first derivatives.
 ... and contract with generalized density number  0.
 Leave Link  701 at Sat Oct  6 02:13:01 2012, MaxMem=  262144000 cpu:       0.2
 (Enter /apps/rhel5/g09-C.01/g09/l702.exe)
 L702 exits ... SP integral derivatives will be done elsewhere.
 Leave Link  702 at Sat Oct  6 02:13:01 2012, MaxMem=  262144000 cpu:       0.0
 (Enter /apps/rhel5/g09-C.01/g09/l703.exe)
 Compute integral first derivatives, UseDBF=F ICtDFT=           0.
 Integral derivatives from FoFDir, PRISM(SPDF).
 Calling FoFJK, ICntrl=      2527 FMM=F ISym2X=1 I1Cent= 0 IOpClX= 0 NMat=1 NMatS=1 NMatT=0.
 FoFCou: FMM=F IPFlag=           0 FMFlag=      100000 FMFlg1=         800
         NFxFlg=           0 DoJE=F BraDBF=F KetDBF=F FulRan=T
         Omega=  0.000000  0.000000  1.000000  0.000000  0.000000 ICntrl=    2527 IOpCl=  0
         NMat0=    1 NMatS0=    1 NMatT0=    0 NMatD0=    1 NMtDS0=    0 NMtDT0=    0
         I1Cent=           0 NGrid=           0.
 Petite list used in FoFCou.
 Leave Link  703 at Sat Oct  6 02:13:02 2012, MaxMem=  262144000 cpu:       0.7
 (Enter /apps/rhel5/g09-C.01/g09/l716.exe)
 Dipole        =-7.47137890D-17 0.00000000D+00 2.27781158D-03
 ***** Axes restored to original set *****
 -------------------------------------------------------------------
 Center     Atomic                   Forces (Hartrees/Bohr)
 Number     Number              X              Y              Z
 -------------------------------------------------------------------
      1        8          -0.014541253    0.000000000   -0.006172396
      2        8          -0.002748358    0.000000000    0.026689447
      3        8           0.017289611    0.000000000   -0.020517051
 -------------------------------------------------------------------
 Cartesian Forces:  Max     0.026689447 RMS     0.013700392
 Leave Link  716 at Sat Oct  6 02:13:02 2012, MaxMem=  262144000 cpu:       0.0
 (Enter /apps/rhel5/g09-C.01/g09/l103.exe)

 GradGradGradGradGradGradGradGradGradGradGradGradGradGradGradGradGradGrad
 Berny optimization.
 Internal  Forces:  Max     0.026689447 RMS     0.022091821
 Search for a local minimum.
 Step number   1 out of a maximum of   20
 All quantities printed in internal units (Hartrees-Bohrs-Radians)
 RMS Force = .22092D-01 SwitMx=.10000D-02 MixMth= 1
 Mixed Optimization -- RFO/linear search
 Second derivative matrix not updated -- first step.
 The second derivative matrix:
                          R1        R2        A1
           R1           0.99955
           R2           0.00000   0.99955
           A1           0.00000   0.00000   0.25000
 ITU=  0
     Eigenvalues ---    0.25000   0.99955   0.99955
 RFO step:  Lambda=-1.58002036D-03 EMin= 2.50000000D-01
 Linear search not attempted -- first point.
 Iteration  1 RMS(Cart)=  0.03005881 RMS(Int)=  0.00021817
 Iteration  2 RMS(Cart)=  0.00018590 RMS(Int)=  0.00000003
 Iteration  3 RMS(Cart)=  0.00000003 RMS(Int)=  0.00000000
 ClnCor:  largest displacement from symmetrization is 2.20D-15 for atom     3.
 Variable       Old X    -DE/DX   Delta X   Delta X   Delta X     New X
                                 (Linear)    (Quad)   (Total)
    R1        2.28657   0.02669   0.00000   0.02666   0.02666   2.31323
    R2        2.28657   0.02669   0.00000   0.02666   0.02666   2.31323
    A1        2.33874   0.00628   0.00000   0.02498   0.02498   2.36372
         Item               Value     Threshold  Converged?
 Maximum Force            0.026689     0.000450     NO 
 RMS     Force            0.022092     0.000300     NO 
 Maximum Displacement     0.034944     0.001800     NO 
 RMS     Displacement     0.030109     0.001200     NO 
 Predicted change in Energy=-7.916294D-04
 GradGradGradGradGradGradGradGradGradGradGradGradGradGradGradGradGradGrad

 Leave Link  103 at Sat Oct  6 02:13:02 2012, MaxMem=  262144000 cpu:       0.0
 (Enter /apps/rhel5/g09-C.01/g09/l202.exe)
                          Input orientation:                          
 ---------------------------------------------------------------------
 Center     Atomic      Atomic             Coordinates (Angstroms)
 Number     Number       Type             X           Y           Z
 ---------------------------------------------------------------------
      1          8           0        0.005276    0.000000    0.002240
      2          8           0       -0.010012    0.000000    1.226252
      3          8           0        0.875137    0.000000   -0.859028
 ---------------------------------------------------------------------
                    Distance matrix (angstroms):
                    1          2          3
     1  O    0.000000
     2  O    1.224108   0.000000
     3  O    1.224108   2.265365   0.000000
 Stoichiometry    O3(1+,2)
 Framework group  C2V[C2(O),SGV(O2)]
 Deg. of freedom     2
 Full point group                 C2V     NOp   4
 RotChk:  IX=0 Diff= 5.55D-15
 Largest Abelian subgroup         C2V     NOp   4
 Largest concise Abelian subgroup C2      NOp   2
                         Standard orientation:                         
 ---------------------------------------------------------------------
 Center     Atomic      Atomic             Coordinates (Angstroms)
 Number     Number       Type             X           Y           Z
 ---------------------------------------------------------------------
      1          8           0        0.000000    0.000000    0.309458
      2          8           0        0.000000    1.132683   -0.154729
      3          8           0        0.000000   -1.132683   -0.154729
 ---------------------------------------------------------------------
 Rotational constants (GHZ):    219.9587518     12.3137054     11.6609059
 Leave Link  202 at Sat Oct  6 02:13:02 2012, MaxMem=  262144000 cpu:       0.0
 (Enter /apps/rhel5/g09-C.01/g09/l301.exe)
 Standard basis: 6-311++G(d,p) (5D, 7F)
 Ernie: Thresh=  0.10000D-02 Tol=  0.10000D-05 Strict=F.
 There are    27 symmetry adapted basis functions of A1  symmetry.
 There are     7 symmetry adapted basis functions of A2  symmetry.
 There are    11 symmetry adapted basis functions of B1  symmetry.
 There are    21 symmetry adapted basis functions of B2  symmetry.
 Integral buffers will be    131072 words long.
 Raffenetti 2 integral format.
 Two-electron integral symmetry is turned on.
    66 basis functions,   108 primitive gaussians,    69 cartesian basis functions
    12 alpha electrons       11 beta electrons
       nuclear repulsion energy        70.2839884508 Hartrees.
 IExCor=  608 DFT=T Ex=PW91 Corr=PW91 ExCW=0 ScaHFX=  0.000000
 ScaDFX=  1.000000  1.000000  1.000000  1.000000 ScalE2=  1.000000  1.000000
 IRadAn=      0 IRanWt=     -1 IRanGd=            0 ICorTp=0
 NAtoms=    3 NActive=    3 NUniq=    2 SFac= 2.25D+00 NAtFMM=   60 NAOKFM=F Big=F
 Leave Link  301 at Sat Oct  6 02:13:02 2012, MaxMem=  262144000 cpu:       0.1
 (Enter /apps/rhel5/g09-C.01/g09/l302.exe)
 NPDir=0 NMtPBC=     1 NCelOv=     1 NCel=       1 NClECP=     1 NCelD=      1
         NCelK=      1 NCelE2=     1 NClLst=     1 CellRange=     0.0.
 One-electron integrals computed using PRISM.
 One-electron integral symmetry used in STVInt
 NBasis=    66 RedAO= T  NBF=    27     7    11    21
 NBsUse=    66 1.00D-06 NBFU=    27     7    11    21
 Precomputing XC quadrature grid using
 IXCGrd= 2 IRadAn=           0 IRanWt=          -1 IRanGd=           0 AccXCQ= 0.00D+00.
 NRdTot=     191 NPtTot=       24138 NUsed=       25527 NTot=       25559
 NSgBfM=    69    69    69    69    69 NAtAll=     3     3.
 Leave Link  302 at Sat Oct  6 02:13:02 2012, MaxMem=  262144000 cpu:       0.2
 (Enter /apps/rhel5/g09-C.01/g09/l303.exe)
 DipDrv:  MaxL=1.
 Leave Link  303 at Sat Oct  6 02:13:02 2012, MaxMem=  262144000 cpu:       0.1
 (Enter /apps/rhel5/g09-C.01/g09/l401.exe)
 Initial guess read from the read-write file.
 B after Tr=     0.000000    0.000000    0.000000
         Rot=    1.000000    0.000000    0.000000    0.000000 Ang=   0.00 deg.
 Guess basis will be translated and rotated to current coordinates.
 Initial guess orbital symmetries:
 Alpha Orbitals:
       Occupied  (A1) (B2) (A1) (A1) (B2) (A1) (B1) (A1) (B2) (A2)
                 (B2) (A1)
       Virtual   (B1) (A1) (A1) (B2) (B1) (A1) (B2) (A1) (B2) (A2)
                 (A1) (B1) (B2) (A1) (B2) (A1) (B1) (A1) (B2) (B2)
                 (A2) (A1) (B1) (B2) (A1) (B2) (A1) (A2) (A1) (B1)
                 (B2) (A1) (A2) (B2) (B1) (A1) (B2) (B1) (A1) (A2)
                 (B2) (A1) (B1) (A1) (B2) (A2) (B2) (A1) (B1) (A1)
                 (B2) (A1) (A1) (B2)
 Beta  Orbitals:
       Occupied  (A1) (B2) (A1) (A1) (B2) (A1) (B1) (A1) (B2) (A2)
                 (B2)
       Virtual   (A1) (B1) (A1) (A1) (B2) (B1) (A1) (B2) (A1) (A2)
                 (B2) (A1) (B1) (B2) (A1) (B2) (B1) (A1) (A1) (B2)
                 (A2) (B2) (A1) (B1) (B2) (A1) (B2) (A1) (A2) (A1)
                 (B1) (B2) (A1) (A2) (B2) (B1) (A1) (B2) (B1) (A1)
                 (A2) (B2) (A1) (B1) (A1) (B2) (A2) (B2) (B1) (A1)
                 (A1) (B2) (A1) (A1) (B2)
 The electronic state of the initial guess is 2-A1.
 Initial guess <Sx>= 0.0000 <Sy>= 0.0000 <Sz>= 0.5000 <S**2>= 0.7521 S= 0.5011
 Generating alternative initial guess.
 Harris functional with IExCor=  608 diagonalized for initial guess.
 ExpMin= 8.45D-02 ExpMax= 8.59D+03 ExpMxC= 1.30D+03 IAcc=2 IRadAn=         4 AccDes= 0.00D+00
 HarFok:  IExCor=  608 AccDes= 0.00D+00 IRadAn=         4 IDoV= 1
 ScaDFX=  1.000000  1.000000  1.000000  1.000000
 FoFCou: FMM=F IPFlag=           0 FMFlag=      100000 FMFlg1=           0
         NFxFlg=           0 DoJE=T BraDBF=F KetDBF=T FulRan=T
         Omega=  0.000000  0.000000  1.000000  0.000000  0.000000 ICntrl=     500 IOpCl=  0
         NMat0=    1 NMatS0=    1 NMatT0=    0 NMatD0=    1 NMtDS0=    0 NMtDT0=    0
         I1Cent=           4 NGrid=           0.
 Petite list used in FoFCou.
 Harris En= -225.198344149100    
 Leave Link  401 at Sat Oct  6 02:13:03 2012, MaxMem=  262144000 cpu:       0.4
 (Enter /apps/rhel5/g09-C.01/g09/l502.exe)
 UHF open shell SCF:
 Requested convergence on RMS density matrix=1.00D-08 within 400 cycles.
 Requested convergence on MAX density matrix=1.00D-06.
 Requested convergence on             energy=1.00D-06.
 Level shift goal  0.100 maximum shift  0.100.
 No special actions if energy rises.
 Dynamic level shift is on during FON iterations.
 Using DIIS extrapolation, IDIIS=    10.
 Integral symmetry usage will be decided dynamically.
        25487 words used for storage of precomputed grid.
 Keep J ints in memory in canonical form, NReq=4009522.
 IEnd=      203930 IEndB=      203930 NGot=   262144000 MDV=   259188353
 LenX=   259188353 LenY=   259183151
 Symmetry not used in FoFDir.
 MinBra= 0 MaxBra= 2 Meth= 1.
 IRaf=       0 NMat=   1 IRICut=       1 DoRegI=T DoRafI=F ISym2E= 0 JSym2E=0.
 Integral accuracy reduced to 1.0D-05 until final iterations.

 Cycle   1  Pass 0  IDiag  1:
 E= -224.997404857250    
 DIIS: error= 2.28D-03 at cycle   1 NSaved=   1.
 NSaved= 1 IEnMin= 1 EnMin= -224.997404857250     IErMin= 1 ErrMin= 2.28D-03
 ErrMax= 2.28D-03 EMaxC= 1.00D+00 BMatC= 2.47D-03 BMatP= 2.47D-03
 IDIUse=1 WtCom= 1.00D+00 WtEn= 0.00D+00
 Coeff-Com:  0.100D+01
 Coeff:      0.100D+01
 Gap=     0.078 Goal=     0.100 Shift=    0.022
 Gap=     0.073 Goal=     0.100 Shift=    0.027
 GapD=    0.073 DampG=0.500 DampE=1.000 DampFc=0.5000 IDamp=-1.
 Damping current iteration by 5.00D-01
 RMSDP=5.61D-04 MaxDP=4.57D-03              OVMax= 1.41D-02

 Cycle   2  Pass 0  IDiag  1:
 E= -224.997715292842     Delta-E=       -0.000310435592 Rises=F Damp=T
 DIIS: error= 1.09D-03 at cycle   2 NSaved=   2.
 NSaved= 2 IEnMin= 2 EnMin= -224.997715292842     IErMin= 2 ErrMin= 1.09D-03
 ErrMax= 1.09D-03 EMaxC= 1.00D+00 BMatC= 5.59D-04 BMatP= 2.47D-03
 IDIUse=1 WtCom= 1.00D+00 WtEn= 0.00D+00
 Coeff-Com: -0.427D+00 0.143D+01
 Coeff:     -0.427D+00 0.143D+01
 Gap=     0.076 Goal=     0.100 Shift=    0.024
 Gap=     0.071 Goal=     0.100 Shift=    0.029
 GapD=    0.071 DampG=0.500 DampE=1.000 DampFc=0.5000 IDamp=-1.
 Damping current iteration by 5.00D-01
 RMSDP=3.15D-04 MaxDP=4.57D-03 DE=-3.10D-04 OVMax= 9.33D-03

 Cycle   3  Pass 0  IDiag  1:
 E= -224.997813230162     Delta-E=       -0.000097937321 Rises=F Damp=T
 DIIS: error= 1.77D-03 at cycle   3 NSaved=   3.
 NSaved= 3 IEnMin= 3 EnMin= -224.997813230162     IErMin= 2 ErrMin= 1.09D-03
 ErrMax= 1.77D-03 EMaxC= 1.00D+00 BMatC= 4.68D-04 BMatP= 5.59D-04
 IDIUse=1 WtCom= 1.00D+00 WtEn= 0.00D+00
 Coeff-Com: -0.534D+00 0.848D+00 0.687D+00
 Coeff:     -0.534D+00 0.848D+00 0.687D+00
 Gap=     0.077 Goal=     0.100 Shift=    0.023
 Gap=     0.072 Goal=     0.100 Shift=    0.028
 GapD=    0.072 DampG=0.500 DampE=1.000 DampFc=0.5000 IDamp=-1.
 Damping current iteration by 5.00D-01
 RMSDP=1.55D-04 MaxDP=2.40D-03 DE=-9.79D-05 OVMax= 6.37D-03

 Cycle   4  Pass 0  IDiag  1:
 E= -224.997939031589     Delta-E=       -0.000125801427 Rises=F Damp=T
 DIIS: error= 8.57D-04 at cycle   4 NSaved=   4.
 NSaved= 4 IEnMin= 4 EnMin= -224.997939031589     IErMin= 4 ErrMin= 8.57D-04
 ErrMax= 8.57D-04 EMaxC= 1.00D+00 BMatC= 1.02D-04 BMatP= 4.68D-04
 IDIUse=1 WtCom= 1.00D+00 WtEn= 0.00D+00
 Coeff-Com: -0.228D+00 0.277D+00-0.272D+00 0.122D+01
 Coeff:     -0.228D+00 0.277D+00-0.272D+00 0.122D+01
 Gap=     0.077 Goal=     0.100 Shift=    0.023
 Gap=     0.072 Goal=     0.100 Shift=    0.028
 RMSDP=7.53D-05 MaxDP=7.65D-04 DE=-1.26D-04 OVMax= 4.35D-04

 Cycle   5  Pass 0  IDiag  1:
 E= -224.998044085890     Delta-E=       -0.000105054300 Rises=F Damp=F
 DIIS: error= 8.45D-05 at cycle   5 NSaved=   5.
 NSaved= 5 IEnMin= 5 EnMin= -224.998044085890     IErMin= 5 ErrMin= 8.45D-05
 ErrMax= 8.45D-05 EMaxC= 1.00D+00 BMatC= 9.28D-07 BMatP= 1.02D-04
 IDIUse=1 WtCom= 1.00D+00 WtEn= 0.00D+00
 Coeff-Com: -0.282D-01 0.158D-01-0.558D-02 0.170D+00 0.848D+00
 Coeff:     -0.282D-01 0.158D-01-0.558D-02 0.170D+00 0.848D+00
 Gap=     0.077 Goal=     0.100 Shift=    0.023
 Gap=     0.072 Goal=     0.100 Shift=    0.028
 RMSDP=5.73D-06 MaxDP=5.69D-05 DE=-1.05D-04 OVMax= 1.51D-04

 Initial convergence to 1.0D-05 achieved.  Increase integral accuracy.
 Cycle   6  Pass 1  IDiag  1:
 E= -224.998078661851     Delta-E=       -0.000034575962 Rises=F Damp=F
 DIIS: error= 1.62D-05 at cycle   1 NSaved=   1.
 NSaved= 1 IEnMin= 1 EnMin= -224.998078661851     IErMin= 1 ErrMin= 1.62D-05
 ErrMax= 1.62D-05 EMaxC= 1.00D+00 BMatC= 6.59D-08 BMatP= 6.59D-08
 IDIUse=1 WtCom= 1.00D+00 WtEn= 0.00D+00
 Coeff-Com:  0.100D+01
 Coeff:      0.100D+01
 Gap=     0.077 Goal=     0.100 Shift=    0.023
 Gap=     0.072 Goal=     0.100 Shift=    0.028
 RMSDP=5.73D-06 MaxDP=5.69D-05 DE=-3.46D-05 OVMax= 6.48D-05

 Cycle   7  Pass 1  IDiag  1:
 E= -224.998078679964     Delta-E=       -0.000000018113 Rises=F Damp=F
 DIIS: error= 7.13D-06 at cycle   2 NSaved=   2.
 NSaved= 2 IEnMin= 2 EnMin= -224.998078679964     IErMin= 2 ErrMin= 7.13D-06
 ErrMax= 7.13D-06 EMaxC= 1.00D+00 BMatC= 1.27D-08 BMatP= 6.59D-08
 IDIUse=1 WtCom= 1.00D+00 WtEn= 0.00D+00
 Coeff-Com:  0.230D+00 0.770D+00
 Coeff:      0.230D+00 0.770D+00
 Gap=     0.077 Goal=     0.100 Shift=    0.023
 Gap=     0.072 Goal=     0.100 Shift=    0.028
 RMSDP=1.03D-06 MaxDP=1.21D-05 DE=-1.81D-08 OVMax= 3.77D-05

 Cycle   8  Pass 1  IDiag  1:
 E= -224.998078677507     Delta-E=        0.000000002457 Rises=F Damp=F
 DIIS: error= 1.34D-05 at cycle   3 NSaved=   3.
 NSaved= 3 IEnMin= 2 EnMin= -224.998078679964     IErMin= 2 ErrMin= 7.13D-06
 ErrMax= 1.34D-05 EMaxC= 1.00D+00 BMatC= 2.91D-08 BMatP= 1.27D-08
 IDIUse=1 WtCom= 1.00D+00 WtEn= 0.00D+00
 Coeff-Com:  0.689D-01 0.587D+00 0.344D+00
 Coeff:      0.689D-01 0.587D+00 0.344D+00
 Gap=     0.077 Goal=     0.100 Shift=    0.023
 Gap=     0.072 Goal=     0.100 Shift=    0.028
 RMSDP=6.04D-07 MaxDP=1.07D-05 DE= 2.46D-09 OVMax= 2.78D-05

 Cycle   9  Pass 1  IDiag  1:
 E= -224.998078681765     Delta-E=       -0.000000004258 Rises=F Damp=F
 DIIS: error= 3.85D-06 at cycle   4 NSaved=   4.
 NSaved= 4 IEnMin= 4 EnMin= -224.998078681765     IErMin= 4 ErrMin= 3.85D-06
 ErrMax= 3.85D-06 EMaxC= 1.00D+00 BMatC= 1.62D-09 BMatP= 1.27D-08
 IDIUse=1 WtCom= 1.00D+00 WtEn= 0.00D+00
 Coeff-Com: -0.315D-02 0.217D+00 0.218D+00 0.568D+00
 Coeff:     -0.315D-02 0.217D+00 0.218D+00 0.568D+00
 Gap=     0.077 Goal=     0.100 Shift=    0.023
 Gap=     0.072 Goal=     0.100 Shift=    0.028
 RMSDP=1.65D-07 MaxDP=3.11D-06 DE=-4.26D-09 OVMax= 5.50D-06

 Cycle  10  Pass 1  IDiag  1:
 E= -224.998078682030     Delta-E=       -0.000000000265 Rises=F Damp=F
 DIIS: error= 2.17D-07 at cycle   5 NSaved=   5.
 NSaved= 5 IEnMin= 5 EnMin= -224.998078682030     IErMin= 5 ErrMin= 2.17D-07
 ErrMax= 2.17D-07 EMaxC= 1.00D+00 BMatC= 1.13D-11 BMatP= 1.62D-09
 IDIUse=1 WtCom= 1.00D+00 WtEn= 0.00D+00
 Coeff-Com: -0.383D-02 0.386D-01 0.475D-01 0.101D+00 0.817D+00
 Coeff:     -0.383D-02 0.386D-01 0.475D-01 0.101D+00 0.817D+00
 Gap=     0.077 Goal=     0.100 Shift=    0.023
 Gap=     0.072 Goal=     0.100 Shift=    0.028
 RMSDP=3.29D-08 MaxDP=4.59D-07 DE=-2.65D-10 OVMax= 1.01D-06

 Cycle  11  Pass 1  IDiag  1:
 E= -224.998078682032     Delta-E=       -0.000000000003 Rises=F Damp=F
 DIIS: error= 6.46D-08 at cycle   6 NSaved=   6.
 NSaved= 6 IEnMin= 6 EnMin= -224.998078682032     IErMin= 6 ErrMin= 6.46D-08
 ErrMax= 6.46D-08 EMaxC= 1.00D+00 BMatC= 9.24D-13 BMatP= 1.13D-11
 IDIUse=1 WtCom= 1.00D+00 WtEn= 0.00D+00
 Coeff-Com:  0.284D-03-0.205D-01-0.230D-01-0.584D-01 0.625D-01 0.104D+01
 Coeff:      0.284D-03-0.205D-01-0.230D-01-0.584D-01 0.625D-01 0.104D+01
 Gap=     0.077 Goal=     0.100 Shift=    0.023
 Gap=     0.072 Goal=     0.100 Shift=    0.028
 RMSDP=1.03D-08 MaxDP=1.55D-07 DE=-2.61D-12 OVMax= 4.36D-07

 Cycle  12  Pass 1  IDiag  1:
 E= -224.998078682033     Delta-E=        0.000000000000 Rises=F Damp=F
 DIIS: error= 2.12D-08 at cycle   7 NSaved=   7.
 NSaved= 7 IEnMin= 7 EnMin= -224.998078682033     IErMin= 7 ErrMin= 2.12D-08
 ErrMax= 2.12D-08 EMaxC= 1.00D+00 BMatC= 3.54D-14 BMatP= 9.24D-13
 IDIUse=1 WtCom= 1.00D+00 WtEn= 0.00D+00
 Coeff-Com:  0.188D-03-0.384D-02-0.425D-02-0.766D-02-0.406D-01 0.751D-01
 Coeff-Com:  0.981D+00
 Coeff:      0.188D-03-0.384D-02-0.425D-02-0.766D-02-0.406D-01 0.751D-01
 Coeff:      0.981D+00
 Gap=     0.077 Goal=     0.100 Shift=    0.023
 Gap=     0.072 Goal=     0.100 Shift=    0.028
 RMSDP=2.09D-09 MaxDP=4.19D-08 DE=-3.41D-13 OVMax= 1.23D-07

 SCF Done:  E(UPW91-PW91) =  -224.998078682     A.U. after   12 cycles
             Convg  =    0.2086D-08             -V/T =  2.0013
 <Sx>= 0.0000 <Sy>= 0.0000 <Sz>= 0.5000 <S**2>= 0.7522 S= 0.5011
 <L.S>= 0.000000000000E+00
 KE= 2.247103924618D+02 PE=-6.638299384423D+02 EE= 1.438374788477D+02
 Annihilation of the first spin contaminant:
 S**2 before annihilation     0.7522,   after     0.7500
 Leave Link  502 at Sat Oct  6 02:13:05 2012, MaxMem=  262144000 cpu:       1.8
 (Enter /apps/rhel5/g09-C.01/g09/l701.exe)
 Compute integral first derivatives.
 ... and contract with generalized density number  0.
 Leave Link  701 at Sat Oct  6 02:13:05 2012, MaxMem=  262144000 cpu:       0.2
 (Enter /apps/rhel5/g09-C.01/g09/l702.exe)
 L702 exits ... SP integral derivatives will be done elsewhere.
 Leave Link  702 at Sat Oct  6 02:13:05 2012, MaxMem=  262144000 cpu:       0.0
 (Enter /apps/rhel5/g09-C.01/g09/l703.exe)
 Compute integral first derivatives, UseDBF=F ICtDFT=           0.
 Integral derivatives from FoFDir, PRISM(SPDF).
 Calling FoFJK, ICntrl=      2527 FMM=F ISym2X=1 I1Cent= 0 IOpClX= 0 NMat=1 NMatS=1 NMatT=0.
 FoFCou: FMM=F IPFlag=           0 FMFlag=      100000 FMFlg1=         800
         NFxFlg=           0 DoJE=F BraDBF=F KetDBF=F FulRan=T
         Omega=  0.000000  0.000000  1.000000  0.000000  0.000000 ICntrl=    2527 IOpCl=  0
         NMat0=    1 NMatS0=    1 NMatT0=    0 NMatD0=    1 NMtDS0=    0 NMtDT0=    0
         I1Cent=           0 NGrid=           0.
 Petite list used in FoFCou.
 Leave Link  703 at Sat Oct  6 02:13:06 2012, MaxMem=  262144000 cpu:       0.7
 (Enter /apps/rhel5/g09-C.01/g09/l716.exe)
 Dipole        =-7.79229985D-17 0.00000000D+00-1.24924347D-02
 ***** Axes restored to original set *****
 -------------------------------------------------------------------
 Center     Atomic                   Forces (Hartrees/Bohr)
 Number     Number              X              Y              Z
 -------------------------------------------------------------------
      1        8          -0.008911821    0.000000000   -0.003782844
      2        8           0.001909707    0.000000000    0.007889902
      3        8           0.007002114    0.000000000   -0.004107059
 -------------------------------------------------------------------
 Cartesian Forces:  Max     0.008911821 RMS     0.005005836
 Leave Link  716 at Sat Oct  6 02:13:06 2012, MaxMem=  262144000 cpu:       0.0
 (Enter /apps/rhel5/g09-C.01/g09/l103.exe)

 GradGradGradGradGradGradGradGradGradGradGradGradGradGradGradGradGradGrad
 Berny optimization.
 Using GEDIIS/GDIIS optimizer.
 Internal  Forces:  Max     0.007865436 RMS     0.006959596
 Search for a local minimum.
 Step number   2 out of a maximum of   20
 All quantities printed in internal units (Hartrees-Bohrs-Radians)
 RMS Force = .69596D-02 SwitMx=.10000D-02 MixMth= 1
 Mixed Optimization -- RFO/linear search
 Update second derivatives using D2CorX and points    1    2
 DE= -9.29D-04 DEPred=-7.92D-04 R= 1.17D+00
 SS=  1.41D+00  RLast= 4.52D-02 DXNew= 5.0454D-01 1.3568D-01
 Trust test= 1.17D+00 RLast= 4.52D-02 DXMaxT set to 3.00D-01
 The second derivative matrix:
                          R1        R2        A1
           R1           0.82677
           R2          -0.17278   0.82677
           A1           0.05561   0.05561   0.31883
 ITU=  1  0
 Use linear search instead of GDIIS.
     Eigenvalues ---    0.30129   0.67152   0.99955
 RFO step:  Lambda=-2.26985511D-04 EMin= 3.01294459D-01
 Quartic linear search produced a step of  0.25664.
 Iteration  1 RMS(Cart)=  0.01251354 RMS(Int)=  0.00010235
 Iteration  2 RMS(Cart)=  0.00012279 RMS(Int)=  0.00000000
 Iteration  3 RMS(Cart)=  0.00000000 RMS(Int)=  0.00000000
 ClnCor:  largest displacement from symmetrization is 8.05D-16 for atom     1.
 Variable       Old X    -DE/DX   Delta X   Delta X   Delta X     New X
                                 (Linear)    (Quad)   (Total)
    R1        2.31323   0.00787   0.00684   0.00724   0.01408   2.32731
    R2        2.31323   0.00787   0.00684   0.00724   0.01408   2.32731
    A1        2.36372  -0.00465   0.00641  -0.02494  -0.01853   2.34519
         Item               Value     Threshold  Converged?
 Maximum Force            0.007865     0.000450     NO 
 RMS     Force            0.006960     0.000300     NO 
 Maximum Displacement     0.015501     0.001800     NO 
 RMS     Displacement     0.012526     0.001200     NO 
 Predicted change in Energy=-1.521962D-04
 GradGradGradGradGradGradGradGradGradGradGradGradGradGradGradGradGradGrad

 Leave Link  103 at Sat Oct  6 02:13:06 2012, MaxMem=  262144000 cpu:       0.0
 (Enter /apps/rhel5/g09-C.01/g09/l202.exe)
                          Input orientation:                          
 ---------------------------------------------------------------------
 Center     Atomic      Atomic             Coordinates (Angstroms)
 Number     Number       Type             X           Y           Z
 ---------------------------------------------------------------------
      1          8           0       -0.002926    0.000000   -0.001242
      2          8           0       -0.006895    0.000000    1.230312
      3          8           0        0.880223    0.000000   -0.859607
 ---------------------------------------------------------------------
                    Distance matrix (angstroms):
                    1          2          3
     1  O    0.000000
     2  O    1.231561   0.000000
     3  O    1.231561   2.270405   0.000000
 Stoichiometry    O3(1+,2)
 Framework group  C2V[C2(O),SGV(O2)]
 Deg. of freedom     2
 Full point group                 C2V     NOp   4
 RotChk:  IX=0 Diff= 1.83D-15
 Largest Abelian subgroup         C2V     NOp   4
 Largest concise Abelian subgroup C2      NOp   2
                         Standard orientation:                         
 ---------------------------------------------------------------------
 Center     Atomic      Atomic             Coordinates (Angstroms)
 Number     Number       Type             X           Y           Z
 ---------------------------------------------------------------------
      1          8           0        0.000000    0.000000    0.318369
      2          8           0        0.000000    1.135203   -0.159184
      3          8           0        0.000000   -1.135203   -0.159184
 ---------------------------------------------------------------------
 Rotational constants (GHZ):    207.8177116     12.2590964     11.5762192
 Leave Link  202 at Sat Oct  6 02:13:06 2012, MaxMem=  262144000 cpu:       0.0
 (Enter /apps/rhel5/g09-C.01/g09/l301.exe)
 Standard basis: 6-311++G(d,p) (5D, 7F)
 Ernie: Thresh=  0.10000D-02 Tol=  0.10000D-05 Strict=F.
 There are    27 symmetry adapted basis functions of A1  symmetry.
 There are     7 symmetry adapted basis functions of A2  symmetry.
 There are    11 symmetry adapted basis functions of B1  symmetry.
 There are    21 symmetry adapted basis functions of B2  symmetry.
 Integral buffers will be    131072 words long.
 Raffenetti 2 integral format.
 Two-electron integral symmetry is turned on.
    66 basis functions,   108 primitive gaussians,    69 cartesian basis functions
    12 alpha electrons       11 beta electrons
       nuclear repulsion energy        69.9159196124 Hartrees.
 IExCor=  608 DFT=T Ex=PW91 Corr=PW91 ExCW=0 ScaHFX=  0.000000
 ScaDFX=  1.000000  1.000000  1.000000  1.000000 ScalE2=  1.000000  1.000000
 IRadAn=      0 IRanWt=     -1 IRanGd=            0 ICorTp=0
 NAtoms=    3 NActive=    3 NUniq=    2 SFac= 2.25D+00 NAtFMM=   60 NAOKFM=F Big=F
 Leave Link  301 at Sat Oct  6 02:13:06 2012, MaxMem=  262144000 cpu:       0.1
 (Enter /apps/rhel5/g09-C.01/g09/l302.exe)
 NPDir=0 NMtPBC=     1 NCelOv=     1 NCel=       1 NClECP=     1 NCelD=      1
         NCelK=      1 NCelE2=     1 NClLst=     1 CellRange=     0.0.
 One-electron integrals computed using PRISM.
 One-electron integral symmetry used in STVInt
 NBasis=    66 RedAO= T  NBF=    27     7    11    21
 NBsUse=    66 1.00D-06 NBFU=    27     7    11    21
 Precomputing XC quadrature grid using
 IXCGrd= 2 IRadAn=           0 IRanWt=          -1 IRanGd=           0 AccXCQ= 0.00D+00.
 NRdTot=     191 NPtTot=       24138 NUsed=       25527 NTot=       25559
 NSgBfM=    69    69    69    69    69 NAtAll=     3     3.
 Leave Link  302 at Sat Oct  6 02:13:06 2012, MaxMem=  262144000 cpu:       0.2
 (Enter /apps/rhel5/g09-C.01/g09/l303.exe)
 DipDrv:  MaxL=1.
 Leave Link  303 at Sat Oct  6 02:13:07 2012, MaxMem=  262144000 cpu:       0.1
 (Enter /apps/rhel5/g09-C.01/g09/l401.exe)
 Initial guess read from the read-write file.
 B after Tr=     0.000000    0.000000    0.000000
         Rot=    1.000000    0.000000    0.000000    0.000000 Ang=   0.00 deg.
 Guess basis will be translated and rotated to current coordinates.
 Initial guess orbital symmetries:
 Alpha Orbitals:
       Occupied  (A1) (B2) (A1) (A1) (B2) (A1) (B1) (A1) (B2) (A2)
                 (B2) (A1)
       Virtual   (B1) (A1) (A1) (B2) (B1) (A1) (B2) (A1) (B2) (A2)
                 (A1) (B1) (B2) (A1) (B2) (A1) (B1) (A1) (B2) (B2)
                 (A2) (A1) (B1) (B2) (A1) (B2) (A1) (A2) (A1) (B1)
                 (B2) (A1) (A2) (B2) (B1) (A1) (B2) (B1) (A1) (A2)
                 (B2) (A1) (B1) (A1) (B2) (A2) (B2) (A1) (B1) (A1)
                 (B2) (A1) (A1) (B2)
 Beta  Orbitals:
       Occupied  (A1) (B2) (A1) (A1) (B2) (A1) (B1) (B2) (A1) (A2)
                 (B2)
       Virtual   (A1) (B1) (A1) (A1) (B2) (B1) (A1) (B2) (A1) (A2)
                 (B2) (A1) (B1) (B2) (A1) (B2) (B1) (A1) (A1) (B2)
                 (A2) (B2) (A1) (B1) (B2) (A1) (B2) (A1) (A2) (A1)
                 (B1) (B2) (A1) (A2) (B2) (B1) (A1) (B1) (B2) (A1)
                 (A2) (B2) (A1) (B1) (A1) (B2) (A2) (B2) (B1) (A1)
                 (A1) (B2) (A1) (A1) (B2)
 The electronic state of the initial guess is 2-A1.
 Initial guess <Sx>= 0.0000 <Sy>= 0.0000 <Sz>= 0.5000 <S**2>= 0.7523 S= 0.5011
 Leave Link  401 at Sat Oct  6 02:13:07 2012, MaxMem=  262144000 cpu:       0.2
 (Enter /apps/rhel5/g09-C.01/g09/l502.exe)
 UHF open shell SCF:
 Requested convergence on RMS density matrix=1.00D-08 within 400 cycles.
 Requested convergence on MAX density matrix=1.00D-06.
 Requested convergence on             energy=1.00D-06.
 Level shift goal  0.100 maximum shift  0.100.
 No special actions if energy rises.
 Dynamic level shift is on during FON iterations.
 Using DIIS extrapolation, IDIIS=    10.
 Integral symmetry usage will be decided dynamically.
        25487 words used for storage of precomputed grid.
 Keep J ints in memory in canonical form, NReq=4009522.
 IEnd=      203930 IEndB=      203930 NGot=   262144000 MDV=   259188353
 LenX=   259188353 LenY=   259183151
 Symmetry not used in FoFDir.
 MinBra= 0 MaxBra= 2 Meth= 1.
 IRaf=       0 NMat=   1 IRICut=       1 DoRegI=T DoRafI=F ISym2E= 0 JSym2E=0.

 Cycle   1  Pass 1  IDiag  1:
 E= -224.997990010377    
 DIIS: error= 1.76D-03 at cycle   1 NSaved=   1.
 NSaved= 1 IEnMin= 1 EnMin= -224.997990010377     IErMin= 1 ErrMin= 1.76D-03
 ErrMax= 1.76D-03 EMaxC= 1.00D+00 BMatC= 8.31D-04 BMatP= 8.31D-04
 IDIUse=1 WtCom= 1.00D+00 WtEn= 0.00D+00
 Coeff-Com:  0.100D+01
 Coeff:      0.100D+01
 Gap=     0.078 Goal=     0.100 Shift=    0.022
 Gap=     0.068 Goal=     0.100 Shift=    0.032
 GapD=    0.068 DampG=0.500 DampE=1.000 DampFc=0.5000 IDamp=-1.
 Damping current iteration by 5.00D-01
 RMSDP=3.86D-04 MaxDP=3.71D-03              OVMax= 8.58D-03

 Cycle   2  Pass 1  IDiag  1:
 E= -224.998112645167     Delta-E=       -0.000122634790 Rises=F Damp=T
 DIIS: error= 8.52D-04 at cycle   2 NSaved=   2.
 NSaved= 2 IEnMin= 2 EnMin= -224.998112645167     IErMin= 2 ErrMin= 8.52D-04
 ErrMax= 8.52D-04 EMaxC= 1.00D+00 BMatC= 2.01D-04 BMatP= 8.31D-04
 IDIUse=1 WtCom= 1.00D+00 WtEn= 0.00D+00
 Coeff-Com: -0.575D+00 0.158D+01
 Coeff:     -0.575D+00 0.158D+01
 Gap=     0.078 Goal=     0.100 Shift=    0.022
 Gap=     0.067 Goal=     0.100 Shift=    0.033
 RMSDP=2.15D-04 MaxDP=2.50D-03 DE=-1.23D-04 OVMax= 4.91D-03

 Cycle   3  Pass 1  IDiag  1:
 E= -224.998143215513     Delta-E=       -0.000030570345 Rises=F Damp=F
 DIIS: error= 2.22D-03 at cycle   3 NSaved=   3.
 NSaved= 3 IEnMin= 3 EnMin= -224.998143215513     IErMin= 2 ErrMin= 8.52D-04
 ErrMax= 2.22D-03 EMaxC= 1.00D+00 BMatC= 6.10D-04 BMatP= 2.01D-04
 IDIUse=1 WtCom= 1.00D+00 WtEn= 0.00D+00
 Coeff-Com: -0.633D+00 0.132D+01 0.316D+00
 Coeff:     -0.633D+00 0.132D+01 0.316D+00
 Gap=     0.078 Goal=     0.100 Shift=    0.022
 Gap=     0.067 Goal=     0.100 Shift=    0.033
 GapD=    0.067 DampG=0.500 DampE=1.000 DampFc=0.5000 IDamp=-1.
 Damping current iteration by 5.00D-01
 RMSDP=7.53D-05 MaxDP=1.28D-03 DE=-3.06D-05 OVMax= 3.74D-03

 Cycle   4  Pass 1  IDiag  1:
 E= -224.998210810236     Delta-E=       -0.000067594724 Rises=F Damp=T
 DIIS: error= 1.14D-03 at cycle   4 NSaved=   4.
 NSaved= 4 IEnMin= 4 EnMin= -224.998210810236     IErMin= 2 ErrMin= 8.52D-04
 ErrMax= 1.14D-03 EMaxC= 1.00D+00 BMatC= 1.47D-04 BMatP= 2.01D-04
 IDIUse=1 WtCom= 1.00D+00 WtEn= 0.00D+00
 Coeff-Com: -0.262D+00 0.510D+00-0.481D+00 0.123D+01
 Coeff:     -0.262D+00 0.510D+00-0.481D+00 0.123D+01
 Gap=     0.078 Goal=     0.100 Shift=    0.022
 Gap=     0.067 Goal=     0.100 Shift=    0.033
 GapD=    0.067 DampG=0.500 DampE=1.000 DampFc=0.5000 IDamp=-1.
 Damping current iteration by 5.00D-01
 RMSDP=3.77D-05 MaxDP=7.17D-04 DE=-6.76D-05 OVMax= 2.18D-04

 Cycle   5  Pass 1  IDiag  1:
 E= -224.998230223311     Delta-E=       -0.000019413074 Rises=F Damp=T
 DIIS: error= 5.55D-04 at cycle   5 NSaved=   5.
 NSaved= 5 IEnMin= 5 EnMin= -224.998230223311     IErMin= 5 ErrMin= 5.55D-04
 ErrMax= 5.55D-04 EMaxC= 1.00D+00 BMatC= 3.49D-05 BMatP= 1.47D-04
 IDIUse=1 WtCom= 1.00D+00 WtEn= 0.00D+00
 Coeff-Com: -0.299D-01 0.590D-01-0.624D-01-0.680D+00 0.171D+01
 Coeff:     -0.299D-01 0.590D-01-0.624D-01-0.680D+00 0.171D+01
 Gap=     0.078 Goal=     0.100 Shift=    0.022
 Gap=     0.067 Goal=     0.100 Shift=    0.033
 RMSDP=1.78D-05 MaxDP=3.29D-04 DE=-1.94D-05 OVMax= 7.73D-05

 Cycle   6  Pass 1  IDiag  1:
 E= -224.998240226604     Delta-E=       -0.000010003293 Rises=F Damp=F
 DIIS: error= 4.13D-06 at cycle   6 NSaved=   6.
 NSaved= 6 IEnMin= 6 EnMin= -224.998240226604     IErMin= 6 ErrMin= 4.13D-06
 ErrMax= 4.13D-06 EMaxC= 1.00D+00 BMatC= 3.56D-09 BMatP= 3.49D-05
 IDIUse=1 WtCom= 1.00D+00 WtEn= 0.00D+00
 Coeff-Com:  0.549D-02-0.111D-01 0.535D-02-0.180D+00 0.332D+00 0.848D+00
 Coeff:      0.549D-02-0.111D-01 0.535D-02-0.180D+00 0.332D+00 0.848D+00
 Gap=     0.078 Goal=     0.100 Shift=    0.022
 Gap=     0.067 Goal=     0.100 Shift=    0.033
 RMSDP=5.11D-07 MaxDP=5.60D-06 DE=-1.00D-05 OVMax= 1.59D-05

 Cycle   7  Pass 1  IDiag  1:
 E= -224.998240227462     Delta-E=       -0.000000000858 Rises=F Damp=F
 DIIS: error= 2.85D-06 at cycle   7 NSaved=   7.
 NSaved= 7 IEnMin= 7 EnMin= -224.998240227462     IErMin= 7 ErrMin= 2.85D-06
 ErrMax= 2.85D-06 EMaxC= 1.00D+00 BMatC= 7.59D-10 BMatP= 3.56D-09
 IDIUse=1 WtCom= 1.00D+00 WtEn= 0.00D+00
 Coeff-Com:  0.327D-02-0.648D-02 0.364D-02 0.333D-01-0.940D-01 0.903D-01
 Coeff-Com:  0.970D+00
 Coeff:      0.327D-02-0.648D-02 0.364D-02 0.333D-01-0.940D-01 0.903D-01
 Coeff:      0.970D+00
 Gap=     0.078 Goal=     0.100 Shift=    0.022
 Gap=     0.067 Goal=     0.100 Shift=    0.033
 RMSDP=1.74D-07 MaxDP=3.75D-06 DE=-8.58D-10 OVMax= 1.19D-05

 Cycle   8  Pass 1  IDiag  1:
 E= -224.998240227648     Delta-E=       -0.000000000186 Rises=F Damp=F
 DIIS: error= 3.81D-07 at cycle   8 NSaved=   8.
 NSaved= 8 IEnMin= 8 EnMin= -224.998240227648     IErMin= 8 ErrMin= 3.81D-07
 ErrMax= 3.81D-07 EMaxC= 1.00D+00 BMatC= 1.35D-11 BMatP= 7.59D-10
 IDIUse=1 WtCom= 1.00D+00 WtEn= 0.00D+00
 Coeff-Com: -0.503D-03 0.102D-02-0.340D-03 0.113D-01-0.203D-01-0.420D-01
 Coeff-Com:  0.251D-01 0.103D+01
 Coeff:     -0.503D-03 0.102D-02-0.340D-03 0.113D-01-0.203D-01-0.420D-01
 Coeff:      0.251D-01 0.103D+01
 Gap=     0.078 Goal=     0.100 Shift=    0.022
 Gap=     0.067 Goal=     0.100 Shift=    0.033
 RMSDP=3.61D-08 MaxDP=7.57D-07 DE=-1.86D-10 OVMax= 2.28D-06

 Cycle   9  Pass 1  IDiag  1:
 E= -224.998240227655     Delta-E=       -0.000000000007 Rises=F Damp=F
 DIIS: error= 1.80D-07 at cycle   9 NSaved=   9.
 NSaved= 9 IEnMin= 9 EnMin= -224.998240227655     IErMin= 9 ErrMin= 1.80D-07
 ErrMax= 1.80D-07 EMaxC= 1.00D+00 BMatC= 2.07D-12 BMatP= 1.35D-11
 IDIUse=1 WtCom= 1.00D+00 WtEn= 0.00D+00
 Coeff-Com: -0.154D-03 0.301D-03-0.108D-04-0.142D-02 0.371D-02-0.863D-02
 Coeff-Com: -0.567D-01-0.407D-01 0.110D+01
 Coeff:     -0.154D-03 0.301D-03-0.108D-04-0.142D-02 0.371D-02-0.863D-02
 Coeff:     -0.567D-01-0.407D-01 0.110D+01
 Gap=     0.078 Goal=     0.100 Shift=    0.022
 Gap=     0.067 Goal=     0.100 Shift=    0.033
 RMSDP=1.18D-08 MaxDP=3.14D-07 DE=-6.93D-12 OVMax= 9.63D-07

 Cycle  10  Pass 1  IDiag  1:
 E= -224.998240227656     Delta-E=       -0.000000000001 Rises=F Damp=F
 DIIS: error= 2.31D-08 at cycle  10 NSaved=  10.
 NSaved=10 IEnMin=10 EnMin= -224.998240227656     IErMin=10 ErrMin= 2.31D-08
 ErrMax= 2.31D-08 EMaxC= 1.00D+00 BMatC= 3.35D-14 BMatP= 2.07D-12
 IDIUse=1 WtCom= 1.00D+00 WtEn= 0.00D+00
 Coeff-Com: -0.298D-05 0.561D-05-0.293D-04-0.284D-03 0.690D-03 0.393D-03
 Coeff-Com: -0.333D-02-0.270D-01 0.844D-02 0.102D+01
 Coeff:     -0.298D-05 0.561D-05-0.293D-04-0.284D-03 0.690D-03 0.393D-03
 Coeff:     -0.333D-02-0.270D-01 0.844D-02 0.102D+01
 Gap=     0.078 Goal=     0.100 Shift=    0.022
 Gap=     0.067 Goal=     0.100 Shift=    0.033
 RMSDP=1.64D-09 MaxDP=4.16D-08 DE=-1.08D-12 OVMax= 1.30D-07

 SCF Done:  E(UPW91-PW91) =  -224.998240228     A.U. after   10 cycles
             Convg  =    0.1635D-08             -V/T =  2.0014
 <Sx>= 0.0000 <Sy>= 0.0000 <Sz>= 0.5000 <S**2>= 0.7524 S= 0.5012
 <L.S>= 0.000000000000E+00
 KE= 2.246773261974D+02 PE=-6.631124254947D+02 EE= 1.435209394572D+02
 Annihilation of the first spin contaminant:
 S**2 before annihilation     0.7524,   after     0.7500
 Leave Link  502 at Sat Oct  6 02:13:09 2012, MaxMem=  262144000 cpu:       1.9
 (Enter /apps/rhel5/g09-C.01/g09/l701.exe)
 Compute integral first derivatives.
 ... and contract with generalized density number  0.
 Leave Link  701 at Sat Oct  6 02:13:09 2012, MaxMem=  262144000 cpu:       0.2
 (Enter /apps/rhel5/g09-C.01/g09/l702.exe)
 L702 exits ... SP integral derivatives will be done elsewhere.
 Leave Link  702 at Sat Oct  6 02:13:09 2012, MaxMem=  262144000 cpu:       0.0
 (Enter /apps/rhel5/g09-C.01/g09/l703.exe)
 Compute integral first derivatives, UseDBF=F ICtDFT=           0.
 Integral derivatives from FoFDir, PRISM(SPDF).
 Calling FoFJK, ICntrl=      2527 FMM=F ISym2X=1 I1Cent= 0 IOpClX= 0 NMat=1 NMatS=1 NMatT=0.
 FoFCou: FMM=F IPFlag=           0 FMFlag=      100000 FMFlg1=         800
         NFxFlg=           0 DoJE=F BraDBF=F KetDBF=F FulRan=T
         Omega=  0.000000  0.000000  1.000000  0.000000  0.000000 ICntrl=    2527 IOpCl=  0
         NMat0=    1 NMatS0=    1 NMatT0=    0 NMatD0=    1 NMtDS0=    0 NMtDT0=    0
         I1Cent=           0 NGrid=           0.
 Petite list used in FoFCou.
 Leave Link  703 at Sat Oct  6 02:13:10 2012, MaxMem=  262144000 cpu:       0.7
 (Enter /apps/rhel5/g09-C.01/g09/l716.exe)
 Dipole        =-7.84105990D-17 3.55271368D-15-1.40610311D-02
 ***** Axes restored to original set *****
 -------------------------------------------------------------------
 Center     Atomic                   Forces (Hartrees/Bohr)
 Number     Number              X              Y              Z
 -------------------------------------------------------------------
      1        8          -0.000559843    0.000000000   -0.000237639
      2        8           0.000177512    0.000000000    0.000360082
      3        8           0.000382331    0.000000000   -0.000122443
 -------------------------------------------------------------------
 Cartesian Forces:  Max     0.000559843 RMS     0.000277336
 Leave Link  716 at Sat Oct  6 02:13:10 2012, MaxMem=  262144000 cpu:       0.1
 (Enter /apps/rhel5/g09-C.01/g09/l103.exe)

 GradGradGradGradGradGradGradGradGradGradGradGradGradGradGradGradGradGrad
 Berny optimization.
 Using GEDIIS/GDIIS optimizer.
 Internal  Forces:  Max     0.000415824 RMS     0.000379210
 Search for a local minimum.
 Step number   3 out of a maximum of   20
 All quantities printed in internal units (Hartrees-Bohrs-Radians)
 RMS Force = .37921D-03 SwitMx=.10000D-02 MixMth= 2
 Mixed Optimization -- En-DIIS/RFO-DIIS
 Update second derivatives using D2CorX and points    1    2    3
 DE= -1.62D-04 DEPred=-1.52D-04 R= 1.06D+00
 SS=  1.41D+00  RLast= 2.72D-02 DXNew= 5.0454D-01 8.1625D-02
 Trust test= 1.06D+00 RLast= 2.72D-02 DXMaxT set to 3.00D-01
 The second derivative matrix:
                          R1        R2        A1
           R1           0.80596
           R2          -0.19359   0.80596
           A1           0.06039   0.06039   0.31997
 ITU=  1  1  0
 Use linear search instead of GDIIS.
     Eigenvalues ---    0.29686   0.63548   0.99955
[...]
 NSaved= 5 IEnMin= 5 EnMin= -224.998240835843     IErMin= 5 ErrMin= 2.08D-06
 ErrMax= 2.08D-06 EMaxC= 1.00D+00 BMatC= 4.19D-10 BMatP= 2.07D-08
 IDIUse=1 WtCom= 1.00D+00 WtEn= 0.00D+00
 Coeff-Com: -0.388D-03 0.246D-01 0.225D-01 0.107D+00 0.846D+00
 Coeff:     -0.388D-03 0.246D-01 0.225D-01 0.107D+00 0.846D+00
 Gap=     0.078 Goal=     0.100 Shift=    0.022
 Gap=     0.067 Goal=     0.100 Shift=    0.033
 RMSDP=1.23D-07 MaxDP=2.11D-06 DE=-3.11D-09 OVMax= 5.15D-06

 Cycle   6  Pass 1  IDiag  1:
 E= -224.998240835926     Delta-E=       -0.000000000083 Rises=F Damp=F
 DIIS: error= 3.74D-07 at cycle   6 NSaved=   6.
 NSaved= 6 IEnMin= 6 EnMin= -224.998240835926     IErMin= 6 ErrMin= 3.74D-07
 ErrMax= 3.74D-07 EMaxC= 1.00D+00 BMatC= 2.53D-11 BMatP= 4.19D-10
 IDIUse=1 WtCom= 1.00D+00 WtEn= 0.00D+00
 Coeff-Com: -0.279D-04-0.685D-02-0.171D-02-0.442D-03 0.209D+00 0.800D+00
 Coeff:     -0.279D-04-0.685D-02-0.171D-02-0.442D-03 0.209D+00 0.800D+00
 Gap=     0.078 Goal=     0.100 Shift=    0.022
 Gap=     0.067 Goal=     0.100 Shift=    0.033
 RMSDP=3.98D-08 MaxDP=4.99D-07 DE=-8.32D-11 OVMax= 1.02D-06

 Cycle   7  Pass 1  IDiag  1:
 E= -224.998240835931     Delta-E=       -0.000000000005 Rises=F Damp=F
 DIIS: error= 1.86D-07 at cycle   7 NSaved=   7.
 NSaved= 7 IEnMin= 7 EnMin= -224.998240835931     IErMin= 7 ErrMin= 1.86D-07
 ErrMax= 1.86D-07 EMaxC= 1.00D+00 BMatC= 3.43D-12 BMatP= 2.53D-11
 IDIUse=1 WtCom= 1.00D+00 WtEn= 0.00D+00
 Coeff-Com:  0.235D-04-0.293D-02-0.293D-02-0.664D-02-0.363D-01 0.862D-01
 Coeff-Com:  0.963D+00
 Coeff:      0.235D-04-0.293D-02-0.293D-02-0.664D-02-0.363D-01 0.862D-01
 Coeff:      0.963D+00
 Gap=     0.078 Goal=     0.100 Shift=    0.022
 Gap=     0.067 Goal=     0.100 Shift=    0.033
 RMSDP=1.12D-08 MaxDP=2.47D-07 DE=-4.89D-12 OVMax= 7.87D-07

 Cycle   8  Pass 1  IDiag  1:
 E= -224.998240835932     Delta-E=       -0.000000000001 Rises=F Damp=F
 DIIS: error= 2.70D-08 at cycle   8 NSaved=   8.
 NSaved= 8 IEnMin= 8 EnMin= -224.998240835932     IErMin= 8 ErrMin= 2.70D-08
 ErrMax= 2.70D-08 EMaxC= 1.00D+00 BMatC= 6.54D-14 BMatP= 3.43D-12
 IDIUse=1 WtCom= 1.00D+00 WtEn= 0.00D+00
 Coeff-Com:  0.748D-05 0.532D-03 0.208D-03 0.525D-04-0.102D-01-0.283D-01
 Coeff-Com:  0.207D-01 0.102D+01
 Coeff:      0.748D-05 0.532D-03 0.208D-03 0.525D-04-0.102D-01-0.283D-01
 Coeff:      0.207D-01 0.102D+01
 Gap=     0.078 Goal=     0.100 Shift=    0.022
 Gap=     0.067 Goal=     0.100 Shift=    0.033
 RMSDP=2.38D-09 MaxDP=4.70D-08 DE=-5.12D-13 OVMax= 1.43D-07

 SCF Done:  E(UPW91-PW91) =  -224.998240836     A.U. after    8 cycles
             Convg  =    0.2380D-08             -V/T =  2.0014
 <Sx>= 0.0000 <Sy>= 0.0000 <Sz>= 0.5000 <S**2>= 0.7524 S= 0.5012
 <L.S>= 0.000000000000E+00
 KE= 2.246757301382D+02 PE=-6.630779091841D+02 EE= 1.435058088250D+02
 Annihilation of the first spin contaminant:
 S**2 before annihilation     0.7524,   after     0.7500
 Leave Link  502 at Sat Oct  6 02:13:12 2012, MaxMem=  262144000 cpu:       1.5
 (Enter /apps/rhel5/g09-C.01/g09/l701.exe)
 Compute integral first derivatives.
 ... and contract with generalized density number  0.
 Leave Link  701 at Sat Oct  6 02:13:12 2012, MaxMem=  262144000 cpu:       0.2
 (Enter /apps/rhel5/g09-C.01/g09/l702.exe)
 L702 exits ... SP integral derivatives will be done elsewhere.
 Leave Link  702 at Sat Oct  6 02:13:12 2012, MaxMem=  262144000 cpu:       0.0
 (Enter /apps/rhel5/g09-C.01/g09/l703.exe)
 Compute integral first derivatives, UseDBF=F ICtDFT=           0.
 Integral derivatives from FoFDir, PRISM(SPDF).
 Calling FoFJK, ICntrl=      2527 FMM=F ISym2X=1 I1Cent= 0 IOpClX= 0 NMat=1 NMatS=1 NMatT=0.
 FoFCou: FMM=F IPFlag=           0 FMFlag=      100000 FMFlg1=         800
         NFxFlg=           0 DoJE=F BraDBF=F KetDBF=F FulRan=T
         Omega=  0.000000  0.000000  1.000000  0.000000  0.000000 ICntrl=    2527 IOpCl=  0
         NMat0=    1 NMatS0=    1 NMatT0=    0 NMatD0=    1 NMtDS0=    0 NMtDT0=    0
         I1Cent=           0 NGrid=           0.
 Petite list used in FoFCou.
 Leave Link  703 at Sat Oct  6 02:13:13 2012, MaxMem=  262144000 cpu:       0.7
 (Enter /apps/rhel5/g09-C.01/g09/l716.exe)
 Dipole        =-7.84132853D-17 0.00000000D+00-1.40265704D-02
 ***** Axes restored to original set *****
 -------------------------------------------------------------------
 Center     Atomic                   Forces (Hartrees/Bohr)
 Number     Number              X              Y              Z
 -------------------------------------------------------------------
      1        8           0.000003133    0.000000000    0.000001330
      2        8          -0.000002129    0.000000000    0.000000660
      3        8          -0.000001004    0.000000000   -0.000001990
 -------------------------------------------------------------------
 Cartesian Forces:  Max     0.000003133 RMS     0.000001546
 Leave Link  716 at Sat Oct  6 02:13:13 2012, MaxMem=  262144000 cpu:       0.0
 (Enter /apps/rhel5/g09-C.01/g09/l103.exe)

 GradGradGradGradGradGradGradGradGradGradGradGradGradGradGradGradGradGrad
 Berny optimization.
 Using GEDIIS/GDIIS optimizer.
 Internal  Forces:  Max     0.000004953 RMS     0.000002911
 Search for a local minimum.
 Step number   4 out of a maximum of   20
 All quantities printed in internal units (Hartrees-Bohrs-Radians)
 RMS Force = .29108D-05 SwitMx=.10000D-02 MixMth= 2
 Mixed Optimization -- En-DIIS/RFO-DIIS
 Swaping is turned off.
 Update second derivatives using D2CorX and points    1    2    3    4
 DE= -6.08D-07 DEPred=-5.95D-07 R= 1.02D+00
 Trust test= 1.02D+00 RLast= 1.95D-03 DXMaxT set to 3.00D-01
 The second derivative matrix:
                          R1        R2        A1
           R1           0.80173
           R2          -0.19781   0.80173
           A1           0.06249   0.06249   0.31755
 ITU=  0  1  1  0
     Eigenvalues ---    0.29248   0.62899   0.99955
 En-DIIS/RFO-DIIS IScMMF=        0 using points:     4    3
 RFO step:  Lambda= 0.00000000D+00.
 DidBck=F Rises=F RFO-DIIS coefs:    0.99429    0.00571
 Iteration  1 RMS(Cart)=  0.00000975 RMS(Int)=  0.00000000
 Iteration  2 RMS(Cart)=  0.00000000 RMS(Int)=  0.00000000
 ClnCor:  largest displacement from symmetrization is 1.34D-14 for atom     3.
 Variable       Old X    -DE/DX   Delta X   Delta X   Delta X     New X
                                  (DIIS)     (GDIIS)  (Total)
    R1        2.32808   0.00000   0.00000   0.00000   0.00000   2.32807
    R2        2.32808   0.00000   0.00000   0.00000   0.00000   2.32807
    A1        2.34356   0.00000   0.00001   0.00001   0.00002   2.34358
         Item               Value     Threshold  Converged?
 Maximum Force            0.000005     0.000450     YES
 RMS     Force            0.000003     0.000300     YES
 Maximum Displacement     0.000011     0.001800     YES
 RMS     Displacement     0.000010     0.001200     YES
 Predicted change in Energy=-3.879298D-11
 Optimization completed.
    -- Stationary point found.
                           ----------------------------
                           !   Optimized Parameters   !
                           ! (Angstroms and Degrees)  !
 --------------------------                            --------------------------
 ! Name  Definition              Value          Derivative Info.                !
 --------------------------------------------------------------------------------
 ! R1    R(1,2)                  1.232          -DE/DX =    0.0                 !
 ! R2    R(1,3)                  1.232          -DE/DX =    0.0                 !
 ! A1    A(2,1,3)              134.2762         -DE/DX =    0.0                 !
 --------------------------------------------------------------------------------
 GradGradGradGradGradGradGradGradGradGradGradGradGradGradGradGradGradGrad

 Largest change from initial coordinates is atom    3       0.021 Angstoms.
 Leave Link  103 at Sat Oct  6 02:13:13 2012, MaxMem=  262144000 cpu:       0.0
 (Enter /apps/rhel5/g09-C.01/g09/l202.exe)
                          Input orientation:                          
 ---------------------------------------------------------------------
 Center     Atomic      Atomic             Coordinates (Angstroms)
 Number     Number       Type             X           Y           Z
 ---------------------------------------------------------------------
      1          8           0       -0.003589    0.000000   -0.001523
      2          8           0       -0.006558    0.000000    1.230438
      3          8           0        0.880547    0.000000   -0.859451
 ---------------------------------------------------------------------
                    Distance matrix (angstroms):
                    1          2          3
     1  O    0.000000
     2  O    1.231964   0.000000
     3  O    1.231964   2.270372   0.000000
 Stoichiometry    O3(1+,2)
 Framework group  C2V[C2(O),SGV(O2)]
 Deg. of freedom     2
 Full point group                 C2V     NOp   4
 RotChk:  IX=0 Diff= 1.96D-15
 Largest Abelian subgroup         C2V     NOp   4
 Largest concise Abelian subgroup C2      NOp   2
                         Standard orientation:                         
 ---------------------------------------------------------------------
 Center     Atomic      Atomic             Coordinates (Angstroms)
 Number     Number       Type             X           Y           Z
 ---------------------------------------------------------------------
      1          8           0        0.000000    0.000000    0.319088
      2          8           0        0.000000    1.135186   -0.159544
      3          8           0        0.000000   -1.135186   -0.159544
 ---------------------------------------------------------------------
 Rotational constants (GHZ):    206.8818083     12.2594569     11.5736240
 Leave Link  202 at Sat Oct  6 02:13:13 2012, MaxMem=  262144000 cpu:       0.0
 (Enter /apps/rhel5/g09-C.01/g09/l601.exe)
 Copying SCF densities to generalized density rwf, IOpCl= 1 IROHF=0.

 **********************************************************************

            Population analysis using the SCF density.

 **********************************************************************

 Orbital symmetries:
 Alpha Orbitals:
       Occupied  (A1) (B2) (A1) (A1) (B2) (A1) (B1) (B2) (A1) (A2)
                 (B2) (A1)
       Virtual   (B1) (A1) (B2) (A1) (B1) (A1) (B2) (A1) (B2) (A2)
                 (A1) (B1) (B2) (A1) (B2) (A1) (B1) (A1) (B2) (B2)
                 (A2) (A1) (B1) (B2) (A1) (B2) (A1) (A2) (A1) (B1)
                 (B2) (A1) (A2) (B2) (B1) (A1) (B2) (B1) (A1) (A2)
                 (B2) (A1) (B1) (A1) (B2) (A2) (B2) (A1) (B1) (A1)
                 (B2) (A1) (A1) (B2)
 Beta  Orbitals:
       Occupied  (A1) (B2) (A1) (A1) (B2) (A1) (B1) (B2) (A1) (A2)
                 (B2)
       Virtual   (A1) (B1) (A1) (A1) (B2) (B1) (A1) (B2) (A1) (A2)
                 (B2) (A1) (B1) (B2) (A1) (B2) (B1) (A1) (A1) (B2)
                 (A2) (B2) (A1) (B1) (B2) (A1) (B2) (A1) (A2) (A1)
                 (B1) (B2) (A1) (A2) (B2) (B1) (A1) (B2) (B1) (A1)
                 (A2) (B2) (A1) (B1) (A1) (B2) (A2) (B2) (B1) (A1)
                 (A1) (B2) (A1) (A1) (B2)
 The electronic state is 2-A1.
 Alpha  occ. eigenvalues --  -19.44560 -19.30422 -19.30421  -1.68294  -1.46064
 Alpha  occ. eigenvalues --   -1.07488  -0.93547  -0.92940  -0.92835  -0.71803
 Alpha  occ. eigenvalues --   -0.71137  -0.66268
 Alpha virt. eigenvalues --   -0.58452  -0.37891  -0.19937  -0.18883  -0.11732
 Alpha virt. eigenvalues --   -0.11597  -0.09280  -0.04175  -0.02863  -0.02263
 Alpha virt. eigenvalues --    0.00778   0.02370   0.05082   0.12027   0.15407
 Alpha virt. eigenvalues --    0.55168   0.56183   0.62004   0.62287   0.64641
 Alpha virt. eigenvalues --    0.64721   0.67390   0.70224   0.75198   0.82809
 Alpha virt. eigenvalues --    1.06925   1.11151   1.63190   1.85509   1.90247
 Alpha virt. eigenvalues --    2.02964   2.14084   2.24052   2.24937   2.25900
 Alpha virt. eigenvalues --    2.34334   2.63527   2.67419   2.86380   3.01277
 Alpha virt. eigenvalues --    3.27071   3.47551   4.15788   4.16815   4.21979
 Alpha virt. eigenvalues --    4.39706   4.43332   4.46395   4.47363   5.17089
 Alpha virt. eigenvalues --    5.91889  48.76739  48.86889  48.90981
  Beta  occ. eigenvalues --  -19.43993 -19.29323 -19.29322  -1.67016  -1.44054
  Beta  occ. eigenvalues --   -1.04920  -0.92811  -0.90876  -0.90368  -0.70688
  Beta  occ. eigenvalues --   -0.67541
  Beta virt. eigenvalues --   -0.60836  -0.57342  -0.36520  -0.18204  -0.17985
  Beta virt. eigenvalues --   -0.11276  -0.10466  -0.08925  -0.03871  -0.01999
  Beta virt. eigenvalues --   -0.01770   0.01470   0.02774   0.05427   0.12398
  Beta virt. eigenvalues --    0.15686   0.56714   0.56914   0.62982   0.63264
  Beta virt. eigenvalues --    0.65279   0.66088   0.69731   0.70825   0.76354
  Beta virt. eigenvalues --    0.83806   1.08615   1.12352   1.63865   1.87906
  Beta virt. eigenvalues --    1.91644   2.05176   2.15233   2.26617   2.27266
  Beta virt. eigenvalues --    2.29335   2.37568   2.66651   2.68467   2.88837
  Beta virt. eigenvalues --    3.02210   3.28608   3.49847   4.16549   4.18806
  Beta virt. eigenvalues --    4.24860   4.40713   4.46177   4.48194   4.50595
  Beta virt. eigenvalues --    5.19245   5.93085  48.77546  48.88067  48.92285
          Condensed to atoms (all electrons):
              1          2          3
     1  O    7.009586   0.311105   0.311105
     2  O    0.311105   7.390788  -0.017791
     3  O    0.311105  -0.017791   7.390788
 Mulliken atomic charges:
              1
     1  O    0.368204
     2  O    0.315898
     3  O    0.315898
 Sum of Mulliken atomic charges =   1.00000
 Mulliken charges with hydrogens summed into heavy atoms:
              1
     1  O    0.368204
     2  O    0.315898
     3  O    0.315898
 Sum of Mulliken charges with hydrogens summed into heavy atoms =   1.00000
          Atomic-Atomic Spin Densities.
              1          2          3
     1  O    0.316288  -0.070149  -0.070149
     2  O   -0.070149   0.464444   0.017711
     3  O   -0.070149   0.017711   0.464444
 Mulliken atomic spin densities:
              1
     1  O    0.175990
     2  O    0.412005
     3  O    0.412005
 Sum of Mulliken atomic spin densities =   1.00000
 Electronic spatial extent (au):  <R**2>=            104.4980
 Charge=              1.0000 electrons
 Dipole moment (field-independent basis, Debye):
    X=              0.0000    Y=              0.0000    Z=             -0.0357  Tot=              0.0357
 Quadrupole moment (field-independent basis, Debye-Ang):
   XX=            -12.7942   YY=             -9.7680   ZZ=            -13.0884
   XY=              0.0000   XZ=              0.0000   YZ=              0.0000
 Traceless Quadrupole moment (field-independent basis, Debye-Ang):
   XX=             -0.9107   YY=              2.1156   ZZ=             -1.2048
   XY=              0.0000   XZ=              0.0000   YZ=              0.0000
 Octapole moment (field-independent basis, Debye-Ang**2):
  XXX=              0.0000  YYY=              0.0000  ZZZ=              0.1338  XYY=              0.0000
  XXY=              0.0000  XXZ=              0.0493  XZZ=              0.0000  YZZ=              0.0000
  YYZ=             -1.2554  XYZ=              0.0000
 Hexadecapole moment (field-independent basis, Debye-Ang**3):
 XXXX=             -7.8853 YYYY=            -70.1436 ZZZZ=            -12.5081 XXXY=              0.0000
 XXXZ=              0.0000 YYYX=              0.0000 YYYZ=              0.0000 ZZZX=              0.0000
 ZZZY=              0.0000 XXYY=            -14.0701 XXZZ=             -3.3684 YYZZ=            -14.7040
 XXYZ=              0.0000 YYXZ=              0.0000 ZZXY=              0.0000
 N-N= 6.989812938493D+01 E-N=-9.869048106194D+02  KE= 3.353180117662D+02
 Symmetry A1   KE= 2.056386938838D+02
 Symmetry A2   KE= 8.241390141536D+00
 Symmetry B1   KE= 7.328770104558D+00
 Symmetry B2   KE= 1.141091576363D+02
                          Isotropic Fermi Contact Couplings
        Atom                 a.u.       MegaHertz       Gauss      10(-4) cm-1
     1  O(17)              0.40278    -244.16439     -87.12392     -81.44447
     2  O(17)              0.00194      -1.17681      -0.41991      -0.39254
     3  O(17)              0.00194      -1.17681      -0.41991      -0.39254
 --------------------------------------------------------
       Center         ----  Spin Dipole Couplings  ----
                      3XX-RR        3YY-RR        3ZZ-RR
 --------------------------------------------------------
     1   Atom       -0.474364     -0.469277      0.943640
     2   Atom       -1.000513     -1.027250      2.027763
     3   Atom       -1.000513     -1.027250      2.027763
 --------------------------------------------------------
                        XY            XZ            YZ
 --------------------------------------------------------
     1   Atom        0.000000      0.000000      0.000000
     2   Atom        0.000000      0.000000     -0.315975
     3   Atom        0.000000      0.000000      0.315975
 --------------------------------------------------------


 ---------------------------------------------------------------------------------
              Anisotropic Spin Dipole Couplings in Principal Axis System
 ---------------------------------------------------------------------------------

       Atom             a.u.   MegaHertz   Gauss  10(-4) cm-1        Axes

              Baa    -0.4744    34.325    12.248    11.449  1.0000  0.0000  0.0000
     1 O(17)  Bbb    -0.4693    33.957    12.117    11.327  0.0000  1.0000  0.0000
              Bcc     0.9436   -68.281   -24.364   -22.776  0.0000  0.0000  1.0000
 
              Baa    -1.0596    76.671    27.358    25.575  0.0000  0.9948  0.1018
     2 O(17)  Bbb    -1.0005    72.396    25.833    24.149  1.0000  0.0000  0.0000
              Bcc     2.0601  -149.067   -53.191   -49.724  0.0000 -0.1018  0.9948
 
              Baa    -1.0596    76.671    27.358    25.575  0.0000  0.9948 -0.1018
     3 O(17)  Bbb    -1.0005    72.396    25.833    24.149  1.0000  0.0000  0.0000
              Bcc     2.0601  -149.067   -53.191   -49.724  0.0000  0.1018  0.9948
 

 ---------------------------------------------------------------------------------

 No NMR shielding tensors so no spin-rotation constants.
 Leave Link  601 at Sat Oct  6 02:13:14 2012, MaxMem=  262144000 cpu:       0.3
 (Enter /apps/rhel5/g09-C.01/g09/l9999.exe)
 B after Tr=     0.000000    0.000000    0.000000
         Rot=    1.000000    0.000000    0.000000    0.000000 Ang=   0.00 deg.
 Final structure in terms of initial Z-matrix:
 O
 O,1,B1
 O,1,B2,2,A1
      Variables:
 B1=1.23196437
 B2=1.23196437
 A1=134.27616608
 1\1\GINC-STEELE-A068\FOpt\UPW91PW91\6-311++G(d,p)\O3(1+,2)\TMANZ\06-Oc
 t-2012\0\\#P opt PW91PW91/6-311++G** geom=connectivity guess=mix # scf
 =(fermi,maxcycle=400) output=wfx\\Title Card Required\\1,2\O,-0.003588
 5912,0.,-0.0015232666\O,-0.0065576269,0.,1.2304375297\O,0.8805473765,0
 .,-0.8594508914\\Version=EM64L-G09RevC.01\State=2-A1\HF=-224.9982408\S
 2=0.752374\S2-1=0.\S2A=0.750003\RMSD=2.380e-09\RMSF=1.546e-06\Dipole=0
 .0129115,0.,0.0054806\Quadrupole=-0.5188872,-0.677084,1.1959712,0.,-0.
 8878939,0.\PG=C02V [C2(O1),SGV(O2)]\\@

 Writing a WFNX file to ozone+1_PW91.wfx.


 LOVE IS BLIND, THAT'S WHY ALL THE WORLD LOVES A LOUVER.
 Job cpu time:  0 days  0 hours  0 minutes 17.1 seconds.
 File lengths (MBytes):  RWF=      9 Int=      0 D2E=      0 Chk=      1 Scr=      1
 Normal termination of Gaussian 09 at Sat Oct  6 02:13:14 2012.
real 20.21
user 14.43
sys 2.66
Machine:
steele-a068
